256
Lattice="14.46 0.0 0.0 0.0 14.46 0.0 0.0 0.0 14.46" Properties=species:S:1:pos:R:3:forces:R:3 config_type=bulk virial="-3.161477488579777e-07 -3.161477488601809e-07 -2.9720090206855623e-07 2.056332526844059e-18 4.681828520939599e-18 -5.61819422512752e-18" energy=-906.2397406353026 stress="-3.161477488579777e-07 -5.61819422512752e-18 4.681828520939599e-18 -5.61819422512752e-18 -3.161477488601809e-07 2.056332526844059e-18 4.681828520939599e-18 2.056332526844059e-18 -2.9720090206855623e-07" free_energy=-906.2397406353026 pbc="T T T"
Cu       0.00000000       0.00000000       0.00000000      -0.00002782      -0.00002782      -0.00005111
Cu       0.00000000       1.80750000       1.80750000       0.00000295       0.00000688       0.00000932
Cu       1.80750000       0.00000000       1.80750000       0.00000688       0.00000295       0.00000932
Cu       1.80750000       1.80750000       0.00000000       0.00001075       0.00001075       0.00000693
Cu       0.00000000       0.00000000       3.61500000       0.00000001       0.00000001       0.00000364
Cu       0.00000000       1.80750000       5.42250000      -0.00000291      -0.00000681       0.00000923
Cu       1.80750000       0.00000000       5.42250000      -0.00000681      -0.00000291       0.00000923
Cu       1.80750000       1.80750000       3.61500000       0.00000000       0.00000000       0.00000030
Cu       0.00000000       0.00000000       7.23000000       0.00000247       0.00000687       0.00000354
Cu       0.00000000       1.80750000       9.03750000       0.00000003      -0.00000000       0.00000005
Cu       1.80750000       0.00000000       9.03750000       0.00000013       0.00000020       0.00000017
Cu       1.80750000       1.80750000       7.23000000       0.00000008      -0.00000000       0.00000007
Cu       0.00000000       0.00000000      10.84500000       0.00000000       0.00000000       0.00000011
Cu       0.00000000       1.80750000      12.65250000      -0.00000003      -0.00000000       0.00000005
Cu       1.80750000       0.00000000      12.65250000      -0.00000013      -0.00000020       0.00000017
Cu       1.80750000       1.80750000      10.84500000       0.00000000      -0.00000000      -0.00000000
Cu       0.00000000       3.61500000       0.00000000       0.00000687       0.00000247       0.00000354
Cu       0.00000000       5.42250000       1.80750000       0.00000020       0.00000013       0.00000017
Cu       1.80750000       3.61500000       1.80750000      -0.00000000       0.00000003       0.00000005
Cu       1.80750000       5.42250000       0.00000000      -0.00000000       0.00000008       0.00000007
Cu       0.00000000       3.61500000       3.61500000       0.00000000       0.00000000       0.00000011
Cu       0.00000000       5.42250000       5.42250000      -0.00000020      -0.00000013       0.00000017
Cu       1.80750000       3.61500000       5.42250000       0.00000000      -0.00000003       0.00000005
Cu       1.80750000       5.42250000       3.61500000       0.00000000       0.00000000      -0.00000000
Cu       0.00000000       3.61500000       7.23000000       0.00000013       0.00000013       0.00000007
Cu       0.00000000       5.42250000       9.03750000       0.00000000      -0.00000000       0.00000000
Cu       1.80750000       3.61500000       9.03750000      -0.00000000      -0.00000000       0.00000000
Cu       1.80750000       5.42250000       7.23000000      -0.00000000      -0.00000000      -0.00000000
Cu       0.00000000       3.61500000      10.84500000      -0.00000000      -0.00000000      -0.00000000
Cu       0.00000000       5.42250000      12.65250000      -0.00000000      -0.00000000      -0.00000000
Cu       1.80750000       3.61500000      12.65250000       0.00000000      -0.00000000      -0.00000000
Cu       1.80750000       5.42250000      10.84500000       0.00000000      -0.00000000      -0.00000000
Cu       0.00000000       7.23000000       0.00000000      -0.00000687       0.00000247       0.00000354
Cu       0.00000000       9.03750000       1.80750000      -0.00000020       0.00000013       0.00000017
Cu       1.80750000       7.23000000       1.80750000      -0.00000688       0.00000295       0.00000932
Cu       1.80750000       9.03750000       0.00000000      -0.00001075       0.00001075       0.00000693
Cu       0.00000000       7.23000000       3.61500000      -0.00000000       0.00000000       0.00000011
Cu       0.00000000       9.03750000       5.42250000       0.00000020      -0.00000013       0.00000017
Cu       1.80750000       7.23000000       5.42250000       0.00000681      -0.00000291       0.00000923
Cu       1.80750000       9.03750000       3.61500000      -0.00000000       0.00000000       0.00000030
Cu       0.00000000       7.23000000       7.23000000      -0.00000013       0.00000013       0.00000007
Cu       0.00000000       9.03750000       9.03750000       0.00000000      -0.00000000       0.00000000
Cu       1.80750000       7.23000000       9.03750000      -0.00000013       0.00000020       0.00000017
Cu       1.80750000       9.03750000       7.23000000      -0.00000008      -0.00000000       0.00000007
Cu       0.00000000       7.23000000      10.84500000       0.00000000      -0.00000000      -0.00000000
Cu       0.00000000       9.03750000      12.65250000       0.00000000      -0.00000000      -0.00000000
Cu       1.80750000       7.23000000      12.65250000       0.00000013      -0.00000020       0.00000017
Cu       1.80750000       9.03750000      10.84500000      -0.00000000      -0.00000000      -0.00000000
Cu       0.00000000      10.84500000       0.00000000       0.00002782      -0.00002782      -0.00005111
Cu       0.00000000      12.65250000       1.80750000      -0.00000295       0.00000688       0.00000932
Cu       1.80750000      10.84500000       1.80750000       0.00000000       0.00002494       0.00005795
Cu       1.80750000      12.65250000       0.00000000       0.00000000       0.00000366      -0.00001607
Cu       0.00000000      10.84500000       3.61500000      -0.00000001       0.00000001       0.00000364
Cu       0.00000000      12.65250000       5.42250000       0.00000291      -0.00000681       0.00000923
Cu       1.80750000      10.84500000       5.42250000       0.00000000      -0.00002463       0.00005742
Cu       1.80750000      12.65250000       3.61500000       0.00000000       0.00000000       0.00000122
Cu       0.00000000      10.84500000       7.23000000      -0.00000247       0.00000687       0.00000354
Cu       0.00000000      12.65250000       9.03750000      -0.00000003      -0.00000000       0.00000005
Cu       1.80750000      10.84500000       9.03750000       0.00000000       0.00000169       0.00000162
Cu       1.80750000      12.65250000       7.23000000       0.00000000      -0.00000000       0.00000014
Cu       0.00000000      10.84500000      10.84500000      -0.00000000       0.00000000       0.00000011
Cu       0.00000000      12.65250000      12.65250000       0.00000003      -0.00000000       0.00000005
Cu       1.80750000      10.84500000      12.65250000       0.00000000      -0.00000166       0.00000160
Cu       1.80750000      12.65250000      10.84500000       0.00000000      -0.00000000       0.00000002
Cu       3.61500000       0.00000000       0.00000000       0.00002711       0.00002711      -0.00005020
Cu       3.61500000       1.80750000       1.80750000      -0.00001498       0.00002745      -0.00003026
Cu       5.42250000       0.00000000       1.80750000       0.00002745      -0.00001498      -0.00003026
Cu       5.42250000       1.80750000       0.00000000      -0.00001068      -0.00001068       0.00000692
Cu       3.61500000       0.00000000       3.61500000      -0.00001795      -0.00001795      -0.00083453
Cu       3.61500000       1.80750000       5.42250000       0.00001522      -0.00002748      -0.00003018
Cu       5.42250000       0.00000000       5.42250000      -0.00002748       0.00001522      -0.00003018
Cu       5.42250000       1.80750000       3.61500000      -0.00000005      -0.00000005      -0.00002187
Cu       3.61500000       0.00000000       7.23000000      -0.00000244      -0.00000682       0.00000353
Cu       3.61500000       1.80750000       9.03750000      -0.00000005      -0.00000000      -0.00000005
Cu       5.42250000       0.00000000       9.03750000      -0.00000246      -0.00000293      -0.00000016
Cu       5.42250000       1.80750000       7.23000000      -0.00000008      -0.00000000       0.00000007
Cu       3.61500000       0.00000000      10.84500000      -0.00000002      -0.00000006      -0.00000717
Cu       3.61500000       1.80750000      12.65250000       0.00000005      -0.00000000      -0.00000006
Cu       5.42250000       0.00000000      12.65250000       0.00000246       0.00000292      -0.00000017
Cu       5.42250000       1.80750000      10.84500000      -0.00000000      -0.00000000      -0.00000014
Cu       3.61500000       3.61500000       0.00000000      -0.00000682      -0.00000244       0.00000353
Cu       3.61500000       5.42250000       1.80750000      -0.00000293      -0.00000246      -0.00000016
Cu       5.42250000       3.61500000       1.80750000      -0.00000000      -0.00000005      -0.00000005
Cu       5.42250000       5.42250000       0.00000000      -0.00000000      -0.00000008       0.00000007
Cu       3.61500000       3.61500000       3.61500000      -0.00000006      -0.00000002      -0.00000717
Cu       3.61500000       5.42250000       5.42250000       0.00000292       0.00000246      -0.00000017
Cu       5.42250000       3.61500000       5.42250000      -0.00000000       0.00000005      -0.00000006
Cu       5.42250000       5.42250000       3.61500000      -0.00000000      -0.00000000      -0.00000014
Cu       3.61500000       3.61500000       7.23000000      -0.00000013      -0.00000013       0.00000007
Cu       3.61500000       5.42250000       9.03750000      -0.00000003      -0.00000000       0.00000000
Cu       5.42250000       3.61500000       9.03750000      -0.00000000      -0.00000003       0.00000000
Cu       5.42250000       5.42250000       7.23000000      -0.00000000      -0.00000000       0.00000000
Cu       3.61500000       3.61500000      10.84500000      -0.00000000      -0.00000000      -0.00000014
Cu       3.61500000       5.42250000      12.65250000       0.00000003      -0.00000000      -0.00000000
Cu       5.42250000       3.61500000      12.65250000      -0.00000000       0.00000003      -0.00000000
Cu       5.42250000       5.42250000      10.84500000      -0.00000000      -0.00000000       0.00000000
Cu       3.61500000       7.23000000       0.00000000       0.00000682      -0.00000244       0.00000353
Cu       3.61500000       9.03750000       1.80750000       0.00000293      -0.00000246      -0.00000016
Cu       5.42250000       7.23000000       1.80750000      -0.00002745      -0.00001498      -0.00003026
Cu       5.42250000       9.03750000       0.00000000       0.00001068      -0.00001068       0.00000692
Cu       3.61500000       7.23000000       3.61500000       0.00000006      -0.00000002      -0.00000717
Cu       3.61500000       9.03750000       5.42250000      -0.00000292       0.00000246      -0.00000017
Cu       5.42250000       7.23000000       5.42250000       0.00002748       0.00001522      -0.00003018
Cu       5.42250000       9.03750000       3.61500000       0.00000005      -0.00000005      -0.00002187
Cu       3.61500000       7.23000000       7.23000000       0.00000013      -0.00000013       0.00000007
Cu       3.61500000       9.03750000       9.03750000       0.00000003      -0.00000000       0.00000000
Cu       5.42250000       7.23000000       9.03750000       0.00000246      -0.00000293      -0.00000016
Cu       5.42250000       9.03750000       7.23000000       0.00000008      -0.00000000       0.00000007
Cu       3.61500000       7.23000000      10.84500000       0.00000000      -0.00000000      -0.00000014
Cu       3.61500000       9.03750000      12.65250000      -0.00000003      -0.00000000      -0.00000000
Cu       5.42250000       7.23000000      12.65250000      -0.00000246       0.00000292      -0.00000017
Cu       5.42250000       9.03750000      10.84500000       0.00000000      -0.00000000      -0.00000014
Cu       3.61500000      10.84500000       0.00000000      -0.00002711       0.00002711      -0.00005020
Cu       3.61500000      12.65250000       1.80750000       0.00001498       0.00002745      -0.00003026
Cu       5.42250000      10.84500000       1.80750000       0.00000000      -0.00881719       0.00811994
Cu       5.42250000      12.65250000       0.00000000       0.00000000      -0.00001515      -0.00000481
Cu       3.61500000      10.84500000       3.61500000       0.00001795      -0.00001795      -0.00083453
Cu       3.61500000      12.65250000       5.42250000      -0.00001522      -0.00002748      -0.00003018
Cu       5.42250000      10.84500000       5.42250000       0.00000000       0.00910189       0.00832137
Cu       5.42250000      12.65250000       3.61500000       0.00000000       0.00000195       0.00003107
Cu       3.61500000      10.84500000       7.23000000       0.00000244      -0.00000682       0.00000353
Cu       3.61500000      12.65250000       9.03750000       0.00000005      -0.00000000      -0.00000005
Cu       5.42250000      10.84500000       9.03750000       0.00000000      -0.00002477      -0.00000157
Cu       5.42250000      12.65250000       7.23000000       0.00000000      -0.00000000       0.00000014
Cu       3.61500000      10.84500000      10.84500000       0.00000002      -0.00000006      -0.00000717
Cu       3.61500000      12.65250000      12.65250000      -0.00000005      -0.00000000      -0.00000006
Cu       5.42250000      10.84500000      12.65250000       0.00000000       0.00002480      -0.00000165
Cu       5.42250000      12.65250000      10.84500000       0.00000000      -0.00000000      -0.00000030
Cu       7.23000000       0.00000000       0.00000000       0.00000247      -0.00000687       0.00000354
Cu       7.23000000       1.80750000       1.80750000       0.00000295      -0.00000688       0.00000932
Cu       9.03750000       0.00000000       1.80750000       0.00000013      -0.00000020       0.00000017
Cu       9.03750000       1.80750000       0.00000000       0.00001075      -0.00001075       0.00000693
Cu       7.23000000       0.00000000       3.61500000       0.00000000      -0.00000000       0.00000011
Cu       7.23000000       1.80750000       5.42250000      -0.00000291       0.00000681       0.00000923
Cu       9.03750000       0.00000000       5.42250000      -0.00000013       0.00000020       0.00000017
Cu       9.03750000       1.80750000       3.61500000       0.00000000      -0.00000000       0.00000030
Cu       7.23000000       0.00000000       7.23000000      -0.00002782       0.00002782      -0.00005111
Cu       7.23000000       1.80750000       9.03750000       0.00002494       0.00000000       0.00005795
Cu       9.03750000       0.00000000       9.03750000       0.00000688      -0.00000295       0.00000932
Cu       9.03750000       1.80750000       7.23000000       0.00000366       0.00000000      -0.00001607
Cu       7.23000000       0.00000000      10.84500000       0.00000001      -0.00000001       0.00000364
Cu       7.23000000       1.80750000      12.65250000      -0.00002463       0.00000000       0.00005742
Cu       9.03750000       0.00000000      12.65250000      -0.00000681       0.00000291       0.00000923
Cu       9.03750000       1.80750000      10.84500000       0.00000000       0.00000000       0.00000122
Cu       7.23000000       3.61500000       0.00000000       0.00000013      -0.00000013       0.00000007
Cu       7.23000000       5.42250000       1.80750000       0.00000020      -0.00000013       0.00000017
Cu       9.03750000       3.61500000       1.80750000      -0.00000000       0.00000000       0.00000000
Cu       9.03750000       5.42250000       0.00000000      -0.00000000      -0.00000008       0.00000007
Cu       7.23000000       3.61500000       3.61500000      -0.00000000       0.00000000      -0.00000000
Cu       7.23000000       5.42250000       5.42250000      -0.00000020       0.00000013       0.00000017
Cu       9.03750000       3.61500000       5.42250000      -0.00000000       0.00000000      -0.00000000
Cu       9.03750000       5.42250000       3.61500000      -0.00000000      -0.00000000       0.00000000
Cu       7.23000000       3.61500000       7.23000000       0.00000687      -0.00000247       0.00000354
Cu       7.23000000       5.42250000       9.03750000       0.00000169       0.00000000       0.00000162
Cu       9.03750000       3.61500000       9.03750000      -0.00000000      -0.00000003       0.00000005
Cu       9.03750000       5.42250000       7.23000000      -0.00000000       0.00000000       0.00000014
Cu       7.23000000       3.61500000      10.84500000       0.00000000      -0.00000000       0.00000011
Cu       7.23000000       5.42250000      12.65250000      -0.00000166       0.00000000       0.00000160
Cu       9.03750000       3.61500000      12.65250000      -0.00000000       0.00000003       0.00000005
Cu       9.03750000       5.42250000      10.84500000      -0.00000000       0.00000000       0.00000002
Cu       7.23000000       7.23000000       0.00000000      -0.00000013      -0.00000013       0.00000007
Cu       7.23000000       9.03750000       1.80750000      -0.00000020      -0.00000013       0.00000017
Cu       9.03750000       7.23000000       1.80750000      -0.00000013      -0.00000020       0.00000017
Cu       9.03750000       9.03750000       0.00000000      -0.00001075      -0.00001075       0.00000693
Cu       7.23000000       7.23000000       3.61500000       0.00000000       0.00000000      -0.00000000
Cu       7.23000000       9.03750000       5.42250000       0.00000020       0.00000013       0.00000017
Cu       9.03750000       7.23000000       5.42250000       0.00000013       0.00000020       0.00000017
Cu       9.03750000       9.03750000       3.61500000      -0.00000000      -0.00000000       0.00000030
Cu       7.23000000       7.23000000       7.23000000      -0.00000687      -0.00000247       0.00000354
Cu       7.23000000       9.03750000       9.03750000      -0.00000169       0.00000000       0.00000162
Cu       9.03750000       7.23000000       9.03750000      -0.00000688      -0.00000295       0.00000932
Cu       9.03750000       9.03750000       7.23000000      -0.00000366       0.00000000      -0.00001607
Cu       7.23000000       7.23000000      10.84500000      -0.00000000      -0.00000000       0.00000011
Cu       7.23000000       9.03750000      12.65250000       0.00000166       0.00000000       0.00000160
Cu       9.03750000       7.23000000      12.65250000       0.00000681       0.00000291       0.00000923
Cu       9.03750000       9.03750000      10.84500000      -0.00000000       0.00000000       0.00000122
Cu       7.23000000      10.84500000       0.00000000      -0.00000247      -0.00000687       0.00000354
Cu       7.23000000      12.65250000       1.80750000      -0.00000295      -0.00000688       0.00000932
Cu       9.03750000      10.84500000       1.80750000       0.00000000      -0.00000169       0.00000162
Cu       9.03750000      12.65250000       0.00000000       0.00000000      -0.00000366      -0.00001607
Cu       7.23000000      10.84500000       3.61500000      -0.00000000      -0.00000000       0.00000011
Cu       7.23000000      12.65250000       5.42250000       0.00000291       0.00000681       0.00000923
Cu       9.03750000      10.84500000       5.42250000       0.00000000       0.00000166       0.00000160
Cu       9.03750000      12.65250000       3.61500000       0.00000000      -0.00000000       0.00000122
Cu       7.23000000      10.84500000       7.23000000       0.00002782       0.00002782      -0.00005111
Cu       7.23000000      12.65250000       9.03750000      -0.00002494       0.00000000       0.00005795
Cu       9.03750000      10.84500000       9.03750000       0.00000000      -0.00002494       0.00005795
Cu       9.03750000      12.65250000       7.23000000       0.00000000       0.00000000      -0.00079689
Cu       7.23000000      10.84500000      10.84500000      -0.00000001      -0.00000001       0.00000364
Cu       7.23000000      12.65250000      12.65250000       0.00002463       0.00000000       0.00005742
Cu       9.03750000      10.84500000      12.65250000       0.00000000       0.00002463       0.00005742
Cu       9.03750000      12.65250000      10.84500000       0.00000000       0.00000000       0.00001158
Cu      10.84500000       0.00000000       0.00000000      -0.00000244       0.00000682       0.00000353
Cu      10.84500000       1.80750000       1.80750000      -0.00001498      -0.00002745      -0.00003026
Cu      12.65250000       0.00000000       1.80750000      -0.00000246       0.00000293      -0.00000016
Cu      12.65250000       1.80750000       0.00000000      -0.00001068       0.00001068       0.00000692
Cu      10.84500000       0.00000000       3.61500000      -0.00000002       0.00000006      -0.00000717
Cu      10.84500000       1.80750000       5.42250000       0.00001522       0.00002748      -0.00003018
Cu      12.65250000       0.00000000       5.42250000       0.00000246      -0.00000292      -0.00000017
Cu      12.65250000       1.80750000       3.61500000      -0.00000005       0.00000005      -0.00002187
Cu      10.84500000       0.00000000       7.23000000       0.00002711      -0.00002711      -0.00005020
Cu      10.84500000       1.80750000       9.03750000      -0.00881719       0.00000000       0.00811994
Cu      12.65250000       0.00000000       9.03750000       0.00002745       0.00001498      -0.00003026
Cu      12.65250000       1.80750000       7.23000000      -0.00001515       0.00000000      -0.00000481
Cu      10.84500000       0.00000000      10.84500000      -0.00001795       0.00001795      -0.00083453
Cu      10.84500000       1.80750000      12.65250000       0.00910189       0.00000000       0.00832137
Cu      12.65250000       0.00000000      12.65250000      -0.00002748      -0.00001522      -0.00003018
Cu      12.65250000       1.80750000      10.84500000       0.00000195       0.00000000       0.00003107
Cu      10.84500000       3.61500000       0.00000000      -0.00000013       0.00000013       0.00000007
Cu      10.84500000       5.42250000       1.80750000      -0.00000293       0.00000246      -0.00000016
Cu      12.65250000       3.61500000       1.80750000      -0.00000000       0.00000003       0.00000000
Cu      12.65250000       5.42250000       0.00000000      -0.00000000       0.00000008       0.00000007
Cu      10.84500000       3.61500000       3.61500000      -0.00000000       0.00000000      -0.00000014
Cu      10.84500000       5.42250000       5.42250000       0.00000292      -0.00000246      -0.00000017
Cu      12.65250000       3.61500000       5.42250000      -0.00000000      -0.00000003      -0.00000000
Cu      12.65250000       5.42250000       3.61500000      -0.00000000       0.00000000      -0.00000014
Cu      10.84500000       3.61500000       7.23000000      -0.00000682       0.00000244       0.00000353
Cu      10.84500000       5.42250000       9.03750000      -0.00002477       0.00000000      -0.00000157
Cu      12.65250000       3.61500000       9.03750000      -0.00000000       0.00000005      -0.00000005
Cu      12.65250000       5.42250000       7.23000000      -0.00000000       0.00000000       0.00000014
Cu      10.84500000       3.61500000      10.84500000      -0.00000006       0.00000002      -0.00000717
Cu      10.84500000       5.42250000      12.65250000       0.00002480       0.00000000      -0.00000165
Cu      12.65250000       3.61500000      12.65250000      -0.00000000      -0.00000005      -0.00000006
Cu      12.65250000       5.42250000      10.84500000      -0.00000000       0.00000000      -0.00000030
Cu      10.84500000       7.23000000       0.00000000       0.00000013       0.00000013       0.00000007
Cu      10.84500000       9.03750000       1.80750000       0.00000293       0.00000246      -0.00000016
Cu      12.65250000       7.23000000       1.80750000       0.00000246       0.00000293      -0.00000016
Cu      12.65250000       9.03750000       0.00000000       0.00001068       0.00001068       0.00000692
Cu      10.84500000       7.23000000       3.61500000       0.00000000       0.00000000      -0.00000014
Cu      10.84500000       9.03750000       5.42250000      -0.00000292      -0.00000246      -0.00000017
Cu      12.65250000       7.23000000       5.42250000      -0.00000246      -0.00000292      -0.00000017
Cu      12.65250000       9.03750000       3.61500000       0.00000005       0.00000005      -0.00002187
Cu      10.84500000       7.23000000       7.23000000       0.00000682       0.00000244       0.00000353
Cu      10.84500000       9.03750000       9.03750000       0.00002477       0.00000000      -0.00000157
Cu      12.65250000       7.23000000       9.03750000      -0.00002745       0.00001498      -0.00003026
Cu      12.65250000       9.03750000       7.23000000       0.00001515       0.00000000      -0.00000481
Cu      10.84500000       7.23000000      10.84500000       0.00000006       0.00000002      -0.00000717
Cu      10.84500000       9.03750000      12.65250000      -0.00002480       0.00000000      -0.00000165
Cu      12.65250000       7.23000000      12.65250000       0.00002748      -0.00001522      -0.00003018
Cu      12.65250000       9.03750000      10.84500000      -0.00000195       0.00000000       0.00003107
Cu      10.84500000      10.84500000       0.00000000       0.00000244       0.00000682       0.00000353
Cu      10.84500000      12.65250000       1.80750000       0.00001498      -0.00002745      -0.00003026
Cu      12.65250000      10.84500000       1.80750000       0.00000000       0.00002477      -0.00000157
Cu      12.65250000      12.65250000       0.00000000       0.00000000       0.00001515      -0.00000481
Cu      10.84500000      10.84500000       3.61500000       0.00000002       0.00000006      -0.00000717
Cu      10.84500000      12.65250000       5.42250000      -0.00001522       0.00002748      -0.00003018
Cu      12.65250000      10.84500000       5.42250000       0.00000000      -0.00002480      -0.00000165
Cu      12.65250000      12.65250000       3.61500000       0.00000000      -0.00000195       0.00003107
Cu      10.84500000      10.84500000       7.23000000      -0.00002711      -0.00002711      -0.00005020
Cu      10.84500000      12.65250000       9.03750000       0.00881719       0.00000000       0.00811994
Cu      12.65250000      10.84500000       9.03750000       0.00000000       0.00881719       0.00811994
Cu      12.65250000      12.65250000       7.23000000       0.00000000       0.00000000      -0.00079023
Cu      10.84500000      10.84500000      10.84500000       0.00001795       0.00001795      -0.00083453
Cu      10.84500000      12.65250000      12.65250000      -0.00910189       0.00000000       0.00832137
Cu      12.65250000      10.84500000      12.65250000       0.00000000      -0.00910189       0.00832137
Cu      12.65250000      12.65250000      10.85329276       0.00000000       0.00000000      -0.06060199
