ITEM: TIMESTEP
0
ITEM: NUMBER OF ATOMS
256
ITEM: BOX BOUNDS pp pp pp
0.0000000000000000e+00 1.4460000000000001e+01
0.0000000000000000e+00 1.4460000000000001e+01
0.0000000000000000e+00 1.4460000000000001e+01
ITEM: ATOMS id type element x y z fx fy fz c_energy
1 1 Cu 0 0 0 -5.82867e-16 -6.34909e-16 -5.99347e-16 -3.53617
2 1 Cu 1.8075 1.8075 0 4.4062e-16 4.08527e-16 -5.85469e-16 -3.53617
3 1 Cu 0 1.8075 1.8075 -6.80012e-16 3.27863e-16 3.34802e-16 -3.53617
4 1 Cu 1.8075 0 1.8075 3.7817e-16 -6.80879e-16 3.07046e-16 -3.53617
5 1 Cu 3.615 0 0 -2.34188e-16 -7.3639e-16 -6.76596e-16 -3.53617
6 1 Cu 5.4225 1.8075 0 1.7911e-16 4.09395e-16 -6.80012e-16 -3.53617
7 1 Cu 3.615 1.8075 1.8075 -2.09902e-16 2.24755e-16 1.18015e-16 -3.53617
8 1 Cu 5.4225 0 1.8075 2.68015e-16 -7.21645e-16 3.52149e-16 -3.53617
9 1 Cu 7.23 0 0 -6.61445e-16 -6.45317e-16 -5.51642e-16 -3.53617
10 1 Cu 9.0375 1.8075 0 8.43076e-16 4.42897e-16 -6.08888e-16 -3.53617
11 1 Cu 7.23 1.8075 1.8075 -4.46908e-16 2.01228e-16 1.97758e-16 -3.53617
12 1 Cu 9.0375 0 1.8075 7.97539e-16 -5.77663e-16 4.56232e-16 -3.53617
13 1 Cu 10.845 0 0 -7.63278e-16 -4.60569e-16 -4.62304e-16 -3.53617
14 1 Cu 12.6525 1.8075 0 5.6205e-16 4.16334e-16 -5.77663e-16 -3.53617
15 1 Cu 10.845 1.8075 1.8075 -6.245e-16 4.19369e-16 5.0307e-16 -3.53617
16 1 Cu 12.6525 0 1.8075 5.20417e-16 -5.49907e-16 4.85723e-16 -3.53617
17 1 Cu 0 3.615 0 -6.73073e-16 -2.5327e-16 -7.14706e-16 -3.53617
18 1 Cu 1.8075 5.4225 0 4.16334e-16 1.51517e-16 -6.41848e-16 -3.53617
19 1 Cu 0 5.4225 1.8075 -6.66134e-16 1.97758e-16 3.71231e-16 -3.53617
20 1 Cu 1.8075 3.615 1.8075 3.05311e-16 -1.81279e-16 1.71738e-16 -3.53617
21 1 Cu 3.615 3.615 0 -2.11636e-16 -2.43078e-16 -7.52762e-16 -3.53617
22 1 Cu 5.4225 5.4225 0 2.12341e-16 1.98965e-16 -7.77156e-16 -3.53617
23 1 Cu 3.615 5.4225 1.8075 -1.5786e-16 1.96159e-16 2.56847e-16 -3.53617
24 1 Cu 5.4225 3.615 1.8075 1.57453e-16 -1.56125e-16 2.29092e-16 -3.53617
25 1 Cu 7.23 3.615 0 -5.12909e-16 -2.15106e-16 -7.14706e-16 -3.53617
26 1 Cu 9.0375 5.4225 0 8.34402e-16 1.89085e-16 -5.98805e-16 -3.53617
27 1 Cu 7.23 5.4225 1.8075 -3.7676e-16 3.05311e-16 3.81639e-16 -3.53617
28 1 Cu 9.0375 3.615 1.8075 8.52183e-16 -2.2031e-16 5.28765e-16 -3.53617
29 1 Cu 10.845 3.615 0 -8.04912e-16 -3.08293e-16 -6.45317e-16 -3.53617
30 1 Cu 12.6525 5.4225 0 6.17562e-16 2.28116e-16 -4.47559e-16 -3.53617
31 1 Cu 10.845 5.4225 1.8075 -7.42462e-16 3.31332e-16 5.93275e-16 -3.53617
32 1 Cu 12.6525 3.615 1.8075 7.42462e-16 -2.73653e-16 5.46438e-16 -3.53617
33 1 Cu 0 7.23 0 -6.10623e-16 -6.01949e-16 -6.14092e-16 -3.53617
34 1 Cu 1.8075 9.0375 0 5.34295e-16 8.83842e-16 -6.46618e-16 -3.53617
35 1 Cu 0 9.0375 1.8075 -6.17562e-16 8.34402e-16 4.51028e-16 -3.53617
36 1 Cu 1.8075 7.23 1.8075 3.19189e-16 -4.49293e-16 2.72352e-16 -3.53617
37 1 Cu 3.615 7.23 0 -2.11636e-16 -4.51001e-16 -7.62194e-16 -3.53617
38 1 Cu 5.4225 9.0375 0 1.53577e-16 8.28764e-16 -6.07804e-16 -3.53617
39 1 Cu 3.615 9.0375 1.8075 -1.7434e-16 9.11814e-16 4.83663e-16 -3.53617
40 1 Cu 5.4225 7.23 1.8075 3.21534e-16 -4.35822e-16 3.7817e-16 -3.53617
41 1 Cu 7.23 7.23 0 -4.92079e-16 -4.51272e-16 -6.31439e-16 -3.53617
42 1 Cu 9.0375 9.0375 0 5.72459e-16 5.99672e-16 -3.06612e-16 -3.53617
43 1 Cu 7.23 9.0375 1.8075 -3.36658e-16 6.451e-16 4.15033e-16 -3.53617
44 1 Cu 9.0375 7.23 1.8075 6.29705e-16 -3.95571e-16 4.39319e-16 -3.53617
45 1 Cu 10.845 7.23 0 -6.31439e-16 -5.18682e-16 -5.70724e-16 -3.53617
46 1 Cu 12.6525 9.0375 0 4.85723e-16 6.56593e-16 -3.40006e-16 -3.53617
47 1 Cu 10.845 9.0375 1.8075 -4.92661e-16 5.51534e-16 3.98986e-16 -3.53617
48 1 Cu 12.6525 7.23 1.8075 5.89806e-16 -3.57353e-16 4.14599e-16 -3.53617
49 1 Cu 0 10.845 0 -4.78784e-16 -6.76542e-16 -4.39752e-16 -3.53617
50 1 Cu 1.8075 12.6525 0 5.20417e-16 5.23886e-16 -5.50775e-16 -3.53617
51 1 Cu 0 12.6525 1.8075 -5.06539e-16 6.50521e-16 5.04805e-16 -3.53617
52 1 Cu 1.8075 10.845 1.8075 5.58581e-16 -5.90673e-16 4.71845e-16 -3.53617
53 1 Cu 3.615 10.845 0 -2.11636e-16 -7.06195e-16 -5.4881e-16 -3.53617
54 1 Cu 5.4225 12.6525 0 1.01861e-16 6.03684e-16 -3.95517e-16 -3.53617
55 1 Cu 3.615 12.6525 1.8075 -2.15106e-16 7.16874e-16 4.95806e-16 -3.53617
56 1 Cu 5.4225 10.845 1.8075 2.50895e-16 -6.45317e-16 4.68375e-16 -3.53617
57 1 Cu 7.23 10.845 0 -5.90551e-16 -6.17562e-16 -5.30825e-16 -3.53617
58 1 Cu 9.0375 12.6525 0 6.17995e-16 5.3706e-16 -3.09648e-16 -3.53617
59 1 Cu 7.23 12.6525 1.8075 -4.36283e-16 6.52256e-16 3.41741e-16 -3.53617
60 1 Cu 9.0375 10.845 1.8075 5.29958e-16 -4.73796e-16 3.81205e-16 -3.53617
61 1 Cu 10.845 10.845 0 -6.45317e-16 -5.79398e-16 -3.96384e-16 -3.53617
62 1 Cu 12.6525 12.6525 0 4.92661e-16 5.37764e-16 -3.79904e-16 -3.53617
63 1 Cu 10.845 12.6525 1.8075 -5.27356e-16 4.52763e-16 3.36536e-16 -3.53617
64 1 Cu 12.6525 10.845 1.8075 4.3715e-16 -5.0307e-16 3.66027e-16 -3.53617
65 1 Cu 0 0 3.615 -7.00828e-16 -7.5287e-16 -1.92554e-16 -3.53617
66 1 Cu 1.8075 1.8075 3.615 2.63678e-16 2.31152e-16 -2.13371e-16 -3.53617
67 1 Cu 0 1.8075 5.4225 -7.35523e-16 3.66027e-16 1.61329e-16 -3.53617
68 1 Cu 1.8075 0 5.4225 3.98986e-16 -6.95624e-16 1.91579e-16 -3.53617
69 1 Cu 3.615 0 3.615 -1.45717e-16 -8.33209e-16 -2.21177e-16 -3.53617
70 1 Cu 5.4225 1.8075 3.615 2.21665e-16 1.8735e-16 -1.40513e-16 -3.53617
71 1 Cu 3.615 1.8075 5.4225 -1.89085e-16 2.78098e-16 2.37359e-16 -3.53617
72 1 Cu 5.4225 0 5.4225 1.89749e-16 -7.70217e-16 1.51355e-16 -3.53617
73 1 Cu 7.23 0 3.615 -5.58066e-16 -7.14706e-16 -2.02963e-16 -3.53617
74 1 Cu 9.0375 1.8075 3.615 8.41341e-16 4.25875e-16 -2.41601e-16 -3.53617
75 1 Cu 7.23 1.8075 5.4225 -4.52668e-16 3.7817e-16 2.58365e-16 -3.53617
76 1 Cu 9.0375 0 5.4225 7.6935e-16 -5.5793e-16 1.07228e-16 -3.53617
77 1 Cu 10.845 0 3.615 -7.49401e-16 -5.9501e-16 -2.34621e-16 -3.53617
78 1 Cu 12.6525 1.8075 3.615 7.70217e-16 4.4062e-16 -1.92554e-16 -3.53617
79 1 Cu 10.845 1.8075 5.4225 -6.93889e-16 4.33681e-16 2.74086e-16 -3.53617
80 1 Cu 12.6525 0 5.4225 6.38378e-16 -4.78784e-16 5.0307e-17 -3.53617
81 1 Cu 0 3.615 3.615 -8.50015e-16 -1.46584e-16 -1.43115e-16 -3.53617
82 1 Cu 1.8075 5.4225 3.615 2.98372e-16 2.01987e-16 -1.43982e-16 -3.53617
83 1 Cu 0 5.4225 5.4225 -7.28584e-16 2.55004e-16 1.61763e-16 -3.53617
84 1 Cu 1.8075 3.615 5.4225 3.1225e-16 -2.26381e-16 1.76508e-16 -3.53617
85 1 Cu 3.615 3.615 3.615 -1.7087e-16 -1.47777e-16 -1.25009e-16 -3.53617
86 1 Cu 5.4225 5.4225 3.615 1.93571e-16 1.43508e-16 -1.8735e-16 -3.53617
87 1 Cu 3.615 5.4225 5.4225 -1.82146e-16 1.3745e-16 1.27909e-16 -3.53617
88 1 Cu 5.4225 3.615 5.4225 1.77782e-16 -1.76942e-16 1.53062e-16 -3.53617
89 1 Cu 7.23 3.615 3.615 -4.78079e-16 -1.5439e-16 -1.5786e-16 -3.53617
90 1 Cu 9.0375 5.4225 3.615 8.21825e-16 3.56811e-16 -2.25839e-16 -3.53617
91 1 Cu 7.23 5.4225 5.4225 -2.9634e-16 2.84752e-16 1.60625e-16 -3.53617
92 1 Cu 9.0375 3.615 5.4225 8.20958e-16 -2.01228e-16 2.79724e-16 -3.53617
93 1 Cu 10.845 3.615 3.615 -7.77156e-16 -1.99222e-16 -2.34188e-16 -3.53617
94 1 Cu 12.6525 5.4225 3.615 7.42462e-16 3.50414e-16 -2.13371e-16 -3.53617
95 1 Cu 10.845 5.4225 5.4225 -6.80012e-16 3.33934e-16 1.80411e-16 -3.53617
96 1 Cu 12.6525 3.615 5.4225 7.14706e-16 -2.20744e-16 2.72352e-16 -3.53617
97 1 Cu 0 7.23 3.615 -7.66748e-16 -4.92661e-16 -1.30104e-16 -3.53617
98 1 Cu 1.8075 9.0375 3.615 5.6205e-16 8.23994e-16 -1.2837e-16 -3.53617
99 1 Cu 0 9.0375 5.4225 -6.66134e-16 7.84095e-16 1.96024e-16 -3.53617
100 1 Cu 1.8075 7.23 5.4225 3.46945e-16 -3.8641e-16 2.87964e-16 -3.53617
101 1 Cu 3.615 7.23 3.615 -1.96024e-16 -4.04245e-16 -9.47593e-17 -3.53617
102 1 Cu 5.4225 9.0375 3.615 3.02669e-16 8.53999e-16 -1.68268e-16 -3.53617
103 1 Cu 3.615 9.0375 5.4225 -2.08167e-16 8.83842e-16 2.2649e-16 -3.53617
104 1 Cu 5.4225 7.23 5.4225 2.9184e-16 -2.15485e-16 2.58799e-16 -3.53617
105 1 Cu 7.23 7.23 3.615 -3.21913e-16 -3.85813e-16 -1.97758e-16 -3.53617
106 1 Cu 9.0375 9.0375 3.615 4.86319e-16 5.14928e-16 -1.09288e-16 -3.53617
107 1 Cu 7.23 9.0375 5.4225 -3.15638e-16 5.1608e-16 2.05565e-16 -3.53617
108 1 Cu 9.0375 7.23 5.4225 5.20851e-16 -3.35886e-16 1.76725e-16 -3.53617
109 1 Cu 10.845 7.23 3.615 -7.00828e-16 -4.66207e-16 -1.97975e-16 -3.53617
110 1 Cu 12.6525 9.0375 3.615 3.81639e-16 6.08888e-16 -1.50054e-16 -3.53617
111 1 Cu 10.845 9.0375 5.4225 -5.41234e-16 5.77554e-16 1.19696e-16 -3.53617
112 1 Cu 12.6525 7.23 5.4225 6.10623e-16 -4.59702e-16 2.15106e-16 -3.53617
113 1 Cu 0 10.845 3.615 -6.10623e-16 -7.21645e-16 -1.9082e-16 -3.53617
114 1 Cu 1.8075 12.6525 3.615 5.27356e-16 7.74554e-16 -2.05565e-16 -3.53617
115 1 Cu 0 12.6525 5.4225 -4.85723e-16 6.245e-16 1.00614e-16 -3.53617
116 1 Cu 1.8075 10.845 5.4225 5.37764e-16 -6.99527e-16 2.10552e-16 -3.53617
117 1 Cu 3.615 10.845 3.615 -2.7929e-16 -7.54388e-16 -2.42211e-16 -3.53617
118 1 Cu 5.4225 12.6525 3.615 3.5841e-16 8.22259e-16 -1.77375e-16 -3.53617
119 1 Cu 3.615 12.6525 5.4225 -1.96024e-16 7.23597e-16 2.64437e-16 -3.53617
120 1 Cu 5.4225 10.845 5.4225 2.84901e-16 -6.38378e-16 2.22045e-16 -3.53617
121 1 Cu 7.23 10.845 3.615 -4.68359e-16 -6.8695e-16 -1.93422e-16 -3.53617
122 1 Cu 9.0375 12.6525 3.615 5.01715e-16 4.47017e-16 -1.34712e-16 -3.53617
123 1 Cu 7.23 12.6525 5.4225 -5.43863e-16 5.20417e-16 1.66533e-16 -3.53617
124 1 Cu 9.0375 10.845 5.4225 5.49907e-16 -5.23128e-16 1.68702e-16 -3.53617
125 1 Cu 10.845 10.845 3.615 -4.78784e-16 -5.74193e-16 -1.38778e-16 -3.53617
126 1 Cu 12.6525 12.6525 3.615 4.16334e-16 4.18068e-16 -1.47451e-16 -3.53617
127 1 Cu 10.845 12.6525 5.4225 -4.996e-16 3.88578e-16 1.249e-16 -3.53617
128 1 Cu 12.6525 10.845 5.4225 4.09395e-16 -5.41234e-16 1.45717e-16 -3.53617
129 1 Cu 0 0 7.23 -6.38378e-16 -6.03684e-16 -6.40113e-16 -3.53617
130 1 Cu 1.8075 1.8075 7.23 3.40006e-16 2.58474e-16 -5.08274e-16 -3.53617
131 1 Cu 0 1.8075 9.0375 -6.38378e-16 4.75314e-16 8.79505e-16 -3.53617
132 1 Cu 1.8075 0 9.0375 5.27356e-16 -5.27356e-16 8.63892e-16 -3.53617
133 1 Cu 3.615 0 7.23 -1.21431e-16 -7.08201e-16 -5.041e-16 -3.53617
134 1 Cu 5.4225 1.8075 7.23 2.37359e-16 2.74086e-16 -5.14346e-16 -3.53617
135 1 Cu 3.615 1.8075 9.0375 -1.95156e-16 4.45851e-16 9.1073e-16 -3.53617
136 1 Cu 5.4225 0 9.0375 1.32584e-16 -5.75928e-16 9.15934e-16 -3.53617
137 1 Cu 7.23 0 7.23 -4.44536e-16 -6.245e-16 -4.49293e-16 -3.53617
138 1 Cu 9.0375 1.8075 7.23 6.5681e-16 3.62991e-16 -4.06251e-16 -3.53617
139 1 Cu 7.23 1.8075 9.0375 -2.77895e-16 3.747e-16 6.55725e-16 -3.53617
140 1 Cu 9.0375 0 9.0375 6.70904e-16 -2.8688e-16 6.88468e-16 -3.53617
141 1 Cu 10.845 0 7.23 -6.52256e-16 -5.29958e-16 -5.30825e-16 -3.53617
142 1 Cu 12.6525 1.8075 7.23 5.6205e-16 3.62557e-16 -3.53884e-16 -3.53617
143 1 Cu 10.845 1.8075 9.0375 -5.68989e-16 2.88398e-16 6.1561e-16 -3.53617
144 1 Cu 12.6525 0 9.0375 4.61436e-16 -3.36536e-16 6.62664e-16 -3.53617
145 1 Cu 0 3.615 7.23 -7.28584e-16 -2.01228e-16 -4.68375e-16 -3.53617
146 1 Cu 1.8075 5.4225 7.23 3.08781e-16 3.56486e-16 -4.33681e-16 -3.53617
147 1 Cu 0 5.4225 9.0375 -5.34295e-16 2.31152e-16 8.69096e-16 -3.53617
148 1 Cu 1.8075 3.615 9.0375 4.92661e-16 -2.46331e-16 8.76035e-16 -3.53617
149 1 Cu 3.615 3.615 7.23 -2.43729e-16 -2.48716e-16 -3.69713e-16 -3.53617
150 1 Cu 5.4225 5.4225 7.23 2.80971e-16 3.6028e-16 -3.61527e-16 -3.53617
151 1 Cu 3.615 5.4225 9.0375 -2.10769e-16 3.55063e-16 8.04261e-16 -3.53617
152 1 Cu 5.4225 3.615 9.0375 3.31752e-16 -2.10769e-16 8.54134e-16 -3.53617
153 1 Cu 7.23 3.615 7.23 -3.17536e-16 -2.22045e-16 -3.24881e-16 -3.53617
154 1 Cu 9.0375 5.4225 7.23 5.11743e-16 3.51715e-16 -3.69821e-16 -3.53617
155 1 Cu 7.23 5.4225 9.0375 -3.3163e-16 2.96082e-16 6.09159e-16 -3.53617
156 1 Cu 9.0375 3.615 9.0375 5.63433e-16 -2.09902e-16 6.26452e-16 -3.53617
157 1 Cu 10.845 3.615 7.23 -6.38378e-16 -2.48716e-16 -4.44957e-16 -3.53617
158 1 Cu 12.6525 5.4225 7.23 5.96745e-16 2.84495e-16 -4.78784e-16 -3.53617
159 1 Cu 10.845 5.4225 9.0375 -6.38378e-16 1.52656e-16 6.54424e-16 -3.53617
160 1 Cu 12.6525 3.615 9.0375 3.95517e-16 -1.78677e-16 6.67435e-16 -3.53617
161 1 Cu 0 7.23 7.23 -6.245e-16 -5.22152e-16 -5.58581e-16 -3.53617
162 1 Cu 1.8075 9.0375 7.23 4.64906e-16 6.25368e-16 -3.81639e-16 -3.53617
163 1 Cu 0 9.0375 9.0375 -3.05311e-16 6.66134e-16 6.7394e-16 -3.53617
164 1 Cu 1.8075 7.23 9.0375 4.16334e-16 -3.77302e-16 6.85216e-16 -3.53617
165 1 Cu 3.615 7.23 7.23 -1.76942e-16 -2.74737e-16 -2.99186e-16 -3.53617
166 1 Cu 5.4225 9.0375 7.23 3.07209e-16 6.34041e-16 -3.22062e-16 -3.53617
167 1 Cu 3.615 9.0375 9.0375 -2.26381e-16 5.63785e-16 5.89047e-16 -3.53617
168 1 Cu 5.4225 7.23 9.0375 2.75875e-16 -3.21412e-16 5.6552e-16 -3.53617
169 1 Cu 7.23 7.23 7.23 -2.92951e-16 -2.28441e-16 -2.21828e-16 -3.53617
170 1 Cu 9.0375 9.0375 7.23 3.60389e-16 4.72197e-16 -4.64689e-16 -3.53617
171 1 Cu 7.23 9.0375 9.0375 -5.22911e-16 5.17463e-16 4.98082e-16 -3.53617
172 1 Cu 9.0375 7.23 9.0375 4.39536e-16 -4.90385e-16 4.83364e-16 -3.53617
173 1 Cu 10.845 7.23 7.23 -5.48173e-16 -4.22405e-16 -3.80772e-16 -3.53617
174 1 Cu 12.6525 9.0375 7.23 4.57967e-16 5.67255e-16 -5.18682e-16 -3.53617
175 1 Cu 10.845 9.0375 9.0375 -5.82867e-16 5.5522e-16 5.72567e-16 -3.53617
176 1 Cu 12.6525 7.23 9.0375 4.82253e-16 -4.77049e-16 4.42354e-16 -3.53617
177 1 Cu 0 10.845 7.23 -5.75928e-16 -6.31439e-16 -6.5746e-16 -3.53617
178 1 Cu 1.8075 12.6525 7.23 4.30211e-16 5.42101e-16 -4.64039e-16 -3.53617
179 1 Cu 0 12.6525 9.0375 -3.98986e-16 4.38885e-16 6.78277e-16 -3.53617
180 1 Cu 1.8075 10.845 9.0375 3.67761e-16 -5.45571e-16 6.245e-16 -3.53617
181 1 Cu 3.615 10.845 7.23 -1.97758e-16 -6.19838e-16 -4.8041e-16 -3.53617
182 1 Cu 5.4225 12.6525 7.23 2.3538e-16 4.92661e-16 -5.23886e-16 -3.53617
183 1 Cu 3.615 12.6525 9.0375 -8.06646e-17 4.17852e-16 5.84277e-16 -3.53617
184 1 Cu 5.4225 10.845 9.0375 2.01499e-16 -5.89806e-16 5.90131e-16 -3.53617
185 1 Cu 7.23 10.845 7.23 -4.47667e-16 -5.34295e-16 -3.54751e-16 -3.53617
186 1 Cu 9.0375 12.6525 7.23 4.13081e-16 3.60064e-16 -4.91252e-16 -3.53617
187 1 Cu 7.23 12.6525 9.0375 -5.16162e-16 4.64906e-16 5.19983e-16 -3.53617
188 1 Cu 9.0375 10.845 9.0375 4.9483e-16 -5.3668e-16 4.90168e-16 -3.53617
189 1 Cu 10.845 10.845 7.23 -5.06539e-16 -4.4062e-16 -5.29958e-16 -3.53617
190 1 Cu 12.6525 12.6525 7.23 4.51028e-16 3.71231e-16 -4.25007e-16 -3.53617
191 1 Cu 10.845 12.6525 9.0375 -5.41234e-16 5.84602e-16 5.28006e-16 -3.53617
192 1 Cu 12.6525 10.845 9.0375 5.82867e-16 -5.07407e-16 5.0307e-16 -3.53617
193 1 Cu 0 0 10.845 -4.92661e-16 -4.23273e-16 -7.06032e-16 -3.53617
194 1 Cu 1.8075 1.8075 10.845 4.30211e-16 4.61003e-16 -6.13225e-16 -3.53617
195 1 Cu 0 1.8075 12.6525 -4.75314e-16 4.57967e-16 5.46438e-16 -3.53617
196 1 Cu 1.8075 0 12.6525 5.13478e-16 -4.9136e-16 6.00214e-16 -3.53617
197 1 Cu 3.615 0 10.845 -1.75207e-16 -6.04117e-16 -6.34258e-16 -3.53617
198 1 Cu 5.4225 1.8075 10.845 2.52174e-16 4.51028e-16 -6.74807e-16 -3.53617
199 1 Cu 3.615 1.8075 12.6525 -2.52402e-16 5.56873e-16 7.54822e-16 -3.53617
200 1 Cu 5.4225 0 12.6525 9.9462e-17 -4.996e-16 6.69603e-16 -3.53617
201 1 Cu 7.23 0 10.845 -6.18876e-16 -5.27356e-16 -7.54605e-16 -3.53617
202 1 Cu 9.0375 1.8075 10.845 6.61363e-16 4.22514e-16 -5.34512e-16 -3.53617
203 1 Cu 7.23 1.8075 12.6525 -4.38131e-16 3.95517e-16 6.34909e-16 -3.53617
204 1 Cu 9.0375 0 12.6525 6.41848e-16 -3.64942e-16 6.05202e-16 -3.53617
205 1 Cu 10.845 0 10.845 -6.245e-16 -3.51282e-16 -5.72459e-16 -3.53617
206 1 Cu 12.6525 1.8075 10.845 3.95517e-16 3.59088e-16 -5.04805e-16 -3.53617
207 1 Cu 10.845 1.8075 12.6525 -5.68989e-16 3.92048e-16 3.88578e-16 -3.53617
208 1 Cu 12.6525 0 12.6525 5.27356e-16 -3.72966e-16 5.55112e-16 -3.53617
209 1 Cu 0 3.615 10.845 -5.75928e-16 -2.15973e-16 -8.1532e-16 -3.53617
210 1 Cu 1.8075 5.4225 10.845 4.68375e-16 2.78423e-16 -7.31186e-16 -3.53617
211 1 Cu 0 5.4225 12.6525 -4.51028e-16 1.45717e-16 7.06032e-16 -3.53617
212 1 Cu 1.8075 3.615 12.6525 4.92661e-16 -3.17454e-16 7.49401e-16 -3.53617
213 1 Cu 3.615 3.615 10.845 -2.67147e-16 -2.92626e-16 -7.24355e-16 -3.53617
214 1 Cu 5.4225 5.4225 10.845 3.17617e-16 3.12684e-16 -5.75928e-16 -3.53617
215 1 Cu 3.615 5.4225 12.6525 -1.76074e-16 2.44271e-16 7.40944e-16 -3.53617
216 1 Cu 5.4225 3.615 12.6525 2.47307e-16 -2.76688e-16 7.58291e-16 -3.53617
217 1 Cu 7.23 3.615 10.845 -4.31868e-16 -1.99493e-16 -6.54208e-16 -3.53617
218 1 Cu 9.0375 5.4225 10.845 6.22766e-16 1.34549e-16 -4.84638e-16 -3.53617
219 1 Cu 7.23 5.4225 12.6525 -5.1833e-16 2.20418e-16 5.68989e-16 -3.53617
220 1 Cu 9.0375 3.615 12.6525 6.59629e-16 -2.00361e-16 4.00125e-16 -3.53617
221 1 Cu 10.845 3.615 10.845 -6.59195e-16 -2.47903e-16 -6.12357e-16 -3.53617
222 1 Cu 12.6525 5.4225 10.845 3.88578e-16 8.84709e-17 -5.86337e-16 -3.53617
223 1 Cu 10.845 5.4225 12.6525 -6.80012e-16 9.1073e-17 4.56232e-16 -3.53617
224 1 Cu 12.6525 3.615 12.6525 4.16334e-16 -2.39826e-16 3.38271e-16 -3.53617
225 1 Cu 0 7.23 10.845 -4.64906e-16 -6.21031e-16 -6.59195e-16 -3.53617
226 1 Cu 1.8075 9.0375 10.845 4.30211e-16 5.97612e-16 -5.47305e-16 -3.53617
227 1 Cu 0 9.0375 12.6525 -3.60822e-16 6.37511e-16 5.11743e-16 -3.53617
228 1 Cu 1.8075 7.23 12.6525 3.88578e-16 -4.23706e-16 6.00214e-16 -3.53617
229 1 Cu 3.615 7.23 10.845 -2.09902e-16 -3.99854e-16 -6.87709e-16 -3.53617
230 1 Cu 5.4225 9.0375 10.845 1.33574e-16 5.68989e-16 -6.21682e-16 -3.53617
231 1 Cu 3.615 9.0375 12.6525 -1.73472e-16 6.00106e-16 4.36933e-16 -3.53617
232 1 Cu 5.4225 7.23 12.6525 2.35814e-16 -4.8575e-16 5.51642e-16 -3.53617
233 1 Cu 7.23 7.23 10.845 -3.29165e-16 -2.72677e-16 -6.10623e-16 -3.53617
234 1 Cu 9.0375 9.0375 10.845 4.71845e-16 4.60461e-16 -6.11924e-16 -3.53617
235 1 Cu 7.23 9.0375 12.6525 -4.80152e-16 4.52329e-16 4.50865e-16 -3.53617
236 1 Cu 9.0375 7.23 12.6525 5.51208e-16 -4.51787e-16 4.52546e-16 -3.53617
237 1 Cu 10.845 7.23 10.845 -6.245e-16 -5.03937e-16 -5.81132e-16 -3.53617
238 1 Cu 12.6525 9.0375 10.845 5.82867e-16 5.26055e-16 -5.06539e-16 -3.53617
239 1 Cu 10.845 9.0375 12.6525 -5.55112e-16 4.76344e-16 5.90673e-16 -3.53617
240 1 Cu 12.6525 7.23 12.6525 4.78784e-16 -4.25007e-16 5.51642e-16 -3.53617
241 1 Cu 0 10.845 10.845 -3.81639e-16 -6.95624e-16 -6.245e-16 -3.53617
242 1 Cu 1.8075 12.6525 10.845 4.09395e-16 3.79904e-16 -5.01335e-16 -3.53617
243 1 Cu 0 12.6525 12.6525 -4.02456e-16 5.58581e-16 5.79398e-16 -3.53617
244 1 Cu 1.8075 10.845 12.6525 4.23273e-16 -4.98733e-16 4.63171e-16 -3.53617
245 1 Cu 3.615 10.845 10.845 -1.49186e-16 -5.87475e-16 -5.63677e-16 -3.53617
246 1 Cu 5.4225 12.6525 10.845 8.05562e-17 4.71845e-16 -6.50521e-16 -3.53617
247 1 Cu 3.615 12.6525 12.6525 -2.09902e-16 4.30862e-16 4.17852e-16 -3.53617
248 1 Cu 5.4225 10.845 12.6525 4.4127e-17 -5.55112e-16 4.7358e-16 -3.53617
249 1 Cu 7.23 10.845 10.845 -5.05838e-16 -5.89806e-16 -5.68989e-16 -3.53617
250 1 Cu 9.0375 12.6525 10.845 5.16948e-16 5.5831e-16 -5.92625e-16 -3.53617
251 1 Cu 7.23 12.6525 12.6525 -4.27067e-16 6.03684e-16 5.39499e-16 -3.53617
252 1 Cu 9.0375 10.845 12.6525 5.22152e-16 -5.38306e-16 5.67038e-16 -3.53617
253 1 Cu 10.845 10.845 10.845 -6.03684e-16 -5.42101e-16 -5.64652e-16 -3.53617
254 1 Cu 12.6525 12.6525 10.845 5.75928e-16 6.2797e-16 -5.27356e-16 -3.53617
255 1 Cu 10.845 12.6525 12.6525 -4.44089e-16 5.29091e-16 5.92408e-16 -3.53617
256 1 Cu 12.6525 10.845 12.6525 5.13478e-16 -4.58834e-16 5.82867e-16 -3.53617
ITEM: TIMESTEP
1
ITEM: NUMBER OF ATOMS
256
ITEM: BOX BOUNDS pp pp pp
0.0000000000000000e+00 1.4460000000000001e+01
0.0000000000000000e+00 1.4460000000000001e+01
0.0000000000000000e+00 1.4460000000000001e+01
ITEM: ATOMS id type element x y z fx fy fz c_energy
1 1 Cu 0 0 0 -5.82867e-16 -6.34909e-16 -5.99347e-16 -3.53617
2 1 Cu 1.8075 1.8075 0 4.4062e-16 4.08527e-16 -5.85469e-16 -3.53617
3 1 Cu 0 1.8075 1.8075 -6.80012e-16 3.27863e-16 3.34802e-16 -3.53617
4 1 Cu 1.8075 0 1.8075 3.7817e-16 -6.80879e-16 3.07046e-16 -3.53617
5 1 Cu 3.615 0 0 -2.34188e-16 -7.3639e-16 -6.76596e-16 -3.53617
6 1 Cu 5.4225 1.8075 0 1.7911e-16 4.09395e-16 -6.80012e-16 -3.53617
7 1 Cu 3.615 1.8075 1.8075 -2.09902e-16 2.24755e-16 1.18015e-16 -3.53617
8 1 Cu 5.4225 0 1.8075 2.68015e-16 -7.21645e-16 3.52149e-16 -3.53617
9 1 Cu 7.23 0 0 -6.61445e-16 -6.45317e-16 -5.51642e-16 -3.53617
10 1 Cu 9.0375 1.8075 0 8.43076e-16 4.42897e-16 -6.08888e-16 -3.53617
11 1 Cu 7.23 1.8075 1.8075 -4.46908e-16 2.01228e-16 1.97758e-16 -3.53617
12 1 Cu 9.0375 0 1.8075 7.97539e-16 -5.77663e-16 4.56232e-16 -3.53617
13 1 Cu 10.845 0 0 -7.63278e-16 -4.60569e-16 -4.62304e-16 -3.53617
14 1 Cu 12.6525 1.8075 0 5.6205e-16 4.16334e-16 -5.77663e-16 -3.53617
15 1 Cu 10.845 1.8075 1.8075 -6.245e-16 4.19369e-16 5.0307e-16 -3.53617
16 1 Cu 12.6525 0 1.8075 5.20417e-16 -5.49907e-16 4.85723e-16 -3.53617
17 1 Cu 0 3.615 0 -6.73073e-16 -2.5327e-16 -7.14706e-16 -3.53617
18 1 Cu 1.8075 5.4225 0 4.16334e-16 1.51517e-16 -6.41848e-16 -3.53617
19 1 Cu 0 5.4225 1.8075 -6.66134e-16 1.97758e-16 3.71231e-16 -3.53617
20 1 Cu 1.8075 3.615 1.8075 3.05311e-16 -1.81279e-16 1.71738e-16 -3.53617
21 1 Cu 3.615 3.615 0 -2.11636e-16 -2.43078e-16 -7.52762e-16 -3.53617
22 1 Cu 5.4225 5.4225 0 2.12341e-16 1.98965e-16 -7.77156e-16 -3.53617
23 1 Cu 3.615 5.4225 1.8075 -1.5786e-16 1.96159e-16 2.56847e-16 -3.53617
24 1 Cu 5.4225 3.615 1.8075 1.57453e-16 -1.56125e-16 2.29092e-16 -3.53617
25 1 Cu 7.23 3.615 0 -5.12909e-16 -2.15106e-16 -7.14706e-16 -3.53617
26 1 Cu 9.0375 5.4225 0 8.34402e-16 1.89085e-16 -5.98805e-16 -3.53617
27 1 Cu 7.23 5.4225 1.8075 -3.7676e-16 3.05311e-16 3.81639e-16 -3.53617
28 1 Cu 9.0375 3.615 1.8075 8.52183e-16 -2.2031e-16 5.28765e-16 -3.53617
29 1 Cu 10.845 3.615 0 -8.04912e-16 -3.08293e-16 -6.45317e-16 -3.53617
30 1 Cu 12.6525 5.4225 0 6.17562e-16 2.28116e-16 -4.47559e-16 -3.53617
31 1 Cu 10.845 5.4225 1.8075 -7.42462e-16 3.31332e-16 5.93275e-16 -3.53617
32 1 Cu 12.6525 3.615 1.8075 7.42462e-16 -2.73653e-16 5.46438e-16 -3.53617
33 1 Cu 0 7.23 0 -6.10623e-16 -6.01949e-16 -6.14092e-16 -3.53617
34 1 Cu 1.8075 9.0375 0 5.34295e-16 8.83842e-16 -6.46618e-16 -3.53617
35 1 Cu 0 9.0375 1.8075 -6.17562e-16 8.34402e-16 4.51028e-16 -3.53617
36 1 Cu 1.8075 7.23 1.8075 3.19189e-16 -4.49293e-16 2.72352e-16 -3.53617
37 1 Cu 3.615 7.23 0 -2.11636e-16 -4.51001e-16 -7.62194e-16 -3.53617
38 1 Cu 5.4225 9.0375 0 1.53577e-16 8.28764e-16 -6.07804e-16 -3.53617
39 1 Cu 3.615 9.0375 1.8075 -1.7434e-16 9.11814e-16 4.83663e-16 -3.53617
40 1 Cu 5.4225 7.23 1.8075 3.21534e-16 -4.35822e-16 3.7817e-16 -3.53617
41 1 Cu 7.23 7.23 0 -4.92079e-16 -4.51272e-16 -6.31439e-16 -3.53617
42 1 Cu 9.0375 9.0375 0 5.72459e-16 5.99672e-16 -3.06612e-16 -3.53617
43 1 Cu 7.23 9.0375 1.8075 -3.36658e-16 6.451e-16 4.15033e-16 -3.53617
44 1 Cu 9.0375 7.23 1.8075 6.29705e-16 -3.95571e-16 4.39319e-16 -3.53617
45 1 Cu 10.845 7.23 0 -6.31439e-16 -5.18682e-16 -5.70724e-16 -3.53617
46 1 Cu 12.6525 9.0375 0 4.85723e-16 6.56593e-16 -3.40006e-16 -3.53617
47 1 Cu 10.845 9.0375 1.8075 -4.92661e-16 5.51534e-16 3.98986e-16 -3.53617
48 1 Cu 12.6525 7.23 1.8075 5.89806e-16 -3.57353e-16 4.14599e-16 -3.53617
49 1 Cu 0 10.845 0 -4.78784e-16 -6.76542e-16 -4.39752e-16 -3.53617
50 1 Cu 1.8075 12.6525 0 5.20417e-16 5.23886e-16 -5.50775e-16 -3.53617
51 1 Cu 0 12.6525 1.8075 -5.06539e-16 6.50521e-16 5.04805e-16 -3.53617
52 1 Cu 1.8075 10.845 1.8075 5.58581e-16 -5.90673e-16 4.71845e-16 -3.53617
53 1 Cu 3.615 10.845 0 -2.11636e-16 -7.06195e-16 -5.4881e-16 -3.53617
54 1 Cu 5.4225 12.6525 0 1.01861e-16 6.03684e-16 -3.95517e-16 -3.53617
55 1 Cu 3.615 12.6525 1.8075 -2.15106e-16 7.16874e-16 4.95806e-16 -3.53617
56 1 Cu 5.4225 10.845 1.8075 2.50895e-16 -6.45317e-16 4.68375e-16 -3.53617
57 1 Cu 7.23 10.845 0 -5.90551e-16 -6.17562e-16 -5.30825e-16 -3.53617
58 1 Cu 9.0375 12.6525 0 6.17995e-16 5.3706e-16 -3.09648e-16 -3.53617
59 1 Cu 7.23 12.6525 1.8075 -4.36283e-16 6.52256e-16 3.41741e-16 -3.53617
60 1 Cu 9.0375 10.845 1.8075 5.29958e-16 -4.73796e-16 3.81205e-16 -3.53617
61 1 Cu 10.845 10.845 0 -6.45317e-16 -5.79398e-16 -3.96384e-16 -3.53617
62 1 Cu 12.6525 12.6525 0 4.92661e-16 5.37764e-16 -3.79904e-16 -3.53617
63 1 Cu 10.845 12.6525 1.8075 -5.27356e-16 4.52763e-16 3.36536e-16 -3.53617
64 1 Cu 12.6525 10.845 1.8075 4.3715e-16 -5.0307e-16 3.66027e-16 -3.53617
65 1 Cu 0 0 3.615 -7.00828e-16 -7.5287e-16 -1.92554e-16 -3.53617
66 1 Cu 1.8075 1.8075 3.615 2.63678e-16 2.31152e-16 -2.13371e-16 -3.53617
67 1 Cu 0 1.8075 5.4225 -7.35523e-16 3.66027e-16 1.61329e-16 -3.53617
68 1 Cu 1.8075 0 5.4225 3.98986e-16 -6.95624e-16 1.91579e-16 -3.53617
69 1 Cu 3.615 0 3.615 -1.45717e-16 -8.33209e-16 -2.21177e-16 -3.53617
70 1 Cu 5.4225 1.8075 3.615 2.21665e-16 1.8735e-16 -1.40513e-16 -3.53617
71 1 Cu 3.615 1.8075 5.4225 -1.89085e-16 2.78098e-16 2.37359e-16 -3.53617
72 1 Cu 5.4225 0 5.4225 1.89749e-16 -7.70217e-16 1.51355e-16 -3.53617
73 1 Cu 7.23 0 3.615 -5.58066e-16 -7.14706e-16 -2.02963e-16 -3.53617
74 1 Cu 9.0375 1.8075 3.615 8.41341e-16 4.25875e-16 -2.41601e-16 -3.53617
75 1 Cu 7.23 1.8075 5.4225 -4.52668e-16 3.7817e-16 2.58365e-16 -3.53617
76 1 Cu 9.0375 0 5.4225 7.6935e-16 -5.5793e-16 1.07228e-16 -3.53617
77 1 Cu 10.845 0 3.615 -7.49401e-16 -5.9501e-16 -2.34621e-16 -3.53617
78 1 Cu 12.6525 1.8075 3.615 7.70217e-16 4.4062e-16 -1.92554e-16 -3.53617
79 1 Cu 10.845 1.8075 5.4225 -6.93889e-16 4.33681e-16 2.74086e-16 -3.53617
80 1 Cu 12.6525 0 5.4225 6.38378e-16 -4.78784e-16 5.0307e-17 -3.53617
81 1 Cu 0 3.615 3.615 -8.50015e-16 -1.46584e-16 -1.43115e-16 -3.53617
82 1 Cu 1.8075 5.4225 3.615 2.98372e-16 2.01987e-16 -1.43982e-16 -3.53617
83 1 Cu 0 5.4225 5.4225 -7.28584e-16 2.55004e-16 1.61763e-16 -3.53617
84 1 Cu 1.8075 3.615 5.4225 3.1225e-16 -2.26381e-16 1.76508e-16 -3.53617
85 1 Cu 3.615 3.615 3.615 -1.7087e-16 -1.47777e-16 -1.25009e-16 -3.53617
86 1 Cu 5.4225 5.4225 3.615 1.93571e-16 1.43508e-16 -1.8735e-16 -3.53617
87 1 Cu 3.615 5.4225 5.4225 -1.82146e-16 1.3745e-16 1.27909e-16 -3.53617
88 1 Cu 5.4225 3.615 5.4225 1.77782e-16 -1.76942e-16 1.53062e-16 -3.53617
89 1 Cu 7.23 3.615 3.615 -4.78079e-16 -1.5439e-16 -1.5786e-16 -3.53617
90 1 Cu 9.0375 5.4225 3.615 8.21825e-16 3.56811e-16 -2.25839e-16 -3.53617
91 1 Cu 7.23 5.4225 5.4225 -2.9634e-16 2.84752e-16 1.60625e-16 -3.53617
92 1 Cu 9.0375 3.615 5.4225 8.20958e-16 -2.01228e-16 2.79724e-16 -3.53617
93 1 Cu 10.845 3.615 3.615 -7.77156e-16 -1.99222e-16 -2.34188e-16 -3.53617
94 1 Cu 12.6525 5.4225 3.615 7.42462e-16 3.50414e-16 -2.13371e-16 -3.53617
95 1 Cu 10.845 5.4225 5.4225 -6.80012e-16 3.33934e-16 1.80411e-16 -3.53617
96 1 Cu 12.6525 3.615 5.4225 7.14706e-16 -2.20744e-16 2.72352e-16 -3.53617
97 1 Cu 0 7.23 3.615 -7.66748e-16 -4.92661e-16 -1.30104e-16 -3.53617
98 1 Cu 1.8075 9.0375 3.615 5.6205e-16 8.23994e-16 -1.2837e-16 -3.53617
99 1 Cu 0 9.0375 5.4225 -6.66134e-16 7.84095e-16 1.96024e-16 -3.53617
100 1 Cu 1.8075 7.23 5.4225 3.46945e-16 -3.8641e-16 2.87964e-16 -3.53617
101 1 Cu 3.615 7.23 3.615 -1.96024e-16 -4.04245e-16 -9.47593e-17 -3.53617
102 1 Cu 5.4225 9.0375 3.615 3.02669e-16 8.53999e-16 -1.68268e-16 -3.53617
103 1 Cu 3.615 9.0375 5.4225 -2.08167e-16 8.83842e-16 2.2649e-16 -3.53617
104 1 Cu 5.4225 7.23 5.4225 2.9184e-16 -2.15485e-16 2.58799e-16 -3.53617
105 1 Cu 7.23 7.23 3.615 -3.21913e-16 -3.85813e-16 -1.97758e-16 -3.53617
106 1 Cu 9.0375 9.0375 3.615 4.86319e-16 5.14928e-16 -1.09288e-16 -3.53617
107 1 Cu 7.23 9.0375 5.4225 -3.15638e-16 5.1608e-16 2.05565e-16 -3.53617
108 1 Cu 9.0375 7.23 5.4225 5.20851e-16 -3.35886e-16 1.76725e-16 -3.53617
109 1 Cu 10.845 7.23 3.615 -7.00828e-16 -4.66207e-16 -1.97975e-16 -3.53617
110 1 Cu 12.6525 9.0375 3.615 3.81639e-16 6.08888e-16 -1.50054e-16 -3.53617
111 1 Cu 10.845 9.0375 5.4225 -5.41234e-16 5.77554e-16 1.19696e-16 -3.53617
112 1 Cu 12.6525 7.23 5.4225 6.10623e-16 -4.59702e-16 2.15106e-16 -3.53617
113 1 Cu 0 10.845 3.615 -6.10623e-16 -7.21645e-16 -1.9082e-16 -3.53617
114 1 Cu 1.8075 12.6525 3.615 5.27356e-16 7.74554e-16 -2.05565e-16 -3.53617
115 1 Cu 0 12.6525 5.4225 -4.85723e-16 6.245e-16 1.00614e-16 -3.53617
116 1 Cu 1.8075 10.845 5.4225 5.37764e-16 -6.99527e-16 2.10552e-16 -3.53617
117 1 Cu 3.615 10.845 3.615 -2.7929e-16 -7.54388e-16 -2.42211e-16 -3.53617
118 1 Cu 5.4225 12.6525 3.615 3.5841e-16 8.22259e-16 -1.77375e-16 -3.53617
119 1 Cu 3.615 12.6525 5.4225 -1.96024e-16 7.23597e-16 2.64437e-16 -3.53617
120 1 Cu 5.4225 10.845 5.4225 2.84901e-16 -6.38378e-16 2.22045e-16 -3.53617
121 1 Cu 7.23 10.845 3.615 -4.68359e-16 -6.8695e-16 -1.93422e-16 -3.53617
122 1 Cu 9.0375 12.6525 3.615 5.01715e-16 4.47017e-16 -1.34712e-16 -3.53617
123 1 Cu 7.23 12.6525 5.4225 -5.43863e-16 5.20417e-16 1.66533e-16 -3.53617
124 1 Cu 9.0375 10.845 5.4225 5.49907e-16 -5.23128e-16 1.68702e-16 -3.53617
125 1 Cu 10.845 10.845 3.615 -4.78784e-16 -5.74193e-16 -1.38778e-16 -3.53617
126 1 Cu 12.6525 12.6525 3.615 4.16334e-16 4.18068e-16 -1.47451e-16 -3.53617
127 1 Cu 10.845 12.6525 5.4225 -4.996e-16 3.88578e-16 1.249e-16 -3.53617
128 1 Cu 12.6525 10.845 5.4225 4.09395e-16 -5.41234e-16 1.45717e-16 -3.53617
129 1 Cu 0 0 7.23 -6.38378e-16 -6.03684e-16 -6.40113e-16 -3.53617
130 1 Cu 1.8075 1.8075 7.23 3.40006e-16 2.58474e-16 -5.08274e-16 -3.53617
131 1 Cu 0 1.8075 9.0375 -6.38378e-16 4.75314e-16 8.79505e-16 -3.53617
132 1 Cu 1.8075 0 9.0375 5.27356e-16 -5.27356e-16 8.63892e-16 -3.53617
133 1 Cu 3.615 0 7.23 -1.21431e-16 -7.08201e-16 -5.041e-16 -3.53617
134 1 Cu 5.4225 1.8075 7.23 2.37359e-16 2.74086e-16 -5.14346e-16 -3.53617
135 1 Cu 3.615 1.8075 9.0375 -1.95156e-16 4.45851e-16 9.1073e-16 -3.53617
136 1 Cu 5.4225 0 9.0375 1.32584e-16 -5.75928e-16 9.15934e-16 -3.53617
137 1 Cu 7.23 0 7.23 -4.44536e-16 -6.245e-16 -4.49293e-16 -3.53617
138 1 Cu 9.0375 1.8075 7.23 6.5681e-16 3.62991e-16 -4.06251e-16 -3.53617
139 1 Cu 7.23 1.8075 9.0375 -2.77895e-16 3.747e-16 6.55725e-16 -3.53617
140 1 Cu 9.0375 0 9.0375 6.70904e-16 -2.8688e-16 6.88468e-16 -3.53617
141 1 Cu 10.845 0 7.23 -6.52256e-16 -5.29958e-16 -5.30825e-16 -3.53617
142 1 Cu 12.6525 1.8075 7.23 5.6205e-16 3.62557e-16 -3.53884e-16 -3.53617
143 1 Cu 10.845 1.8075 9.0375 -5.68989e-16 2.88398e-16 6.1561e-16 -3.53617
144 1 Cu 12.6525 0 9.0375 4.61436e-16 -3.36536e-16 6.62664e-16 -3.53617
145 1 Cu 0 3.615 7.23 -7.28584e-16 -2.01228e-16 -4.68375e-16 -3.53617
146 1 Cu 1.8075 5.4225 7.23 3.08781e-16 3.56486e-16 -4.33681e-16 -3.53617
147 1 Cu 0 5.4225 9.0375 -5.34295e-16 2.31152e-16 8.69096e-16 -3.53617
148 1 Cu 1.8075 3.615 9.0375 4.92661e-16 -2.46331e-16 8.76035e-16 -3.53617
149 1 Cu 3.615 3.615 7.23 -2.43729e-16 -2.48716e-16 -3.69713e-16 -3.53617