ITEM: TIMESTEP
0
ITEM: NUMBER OF ATOMS
256
ITEM: BOX BOUNDS pp pp pp
0.0000000000000000e+00 1.4460000000000001e+01
0.0000000000000000e+00 1.4460000000000001e+01
0.0000000000000000e+00 1.4460000000000001e+01
ITEM: ATOMS id type element x y z fx fy fz c_energy
1 1 Cu 0 0 0 -5.27356e-16 -5.30825e-16 -5.37764e-16 -3.53996
2 1 Cu 1.8075 1.8075 0 -9.71445e-17 -4.25007e-17 -1.01655e-15 -3.53996
3 1 Cu 0 1.8075 1.8075 -1.08247e-15 -4.16334e-17 2.35814e-17 -3.53996
4 1 Cu 1.8075 0 1.8075 -8.32667e-17 -1.0443e-15 -4.40593e-17 -3.53996
5 1 Cu 3.615 0 0 1.30538e-16 -8.18803e-16 -8.04911e-16 -3.53996
6 1 Cu 5.4225 1.8075 0 -3.1829e-17 0 -1.07206e-15 -3.53996
7 1 Cu 3.615 1.8075 1.8075 7.35089e-17 8.60348e-17 8.69242e-17 -3.53996
8 1 Cu 5.4225 0 1.8075 -3.61497e-17 -9.29812e-16 0 -3.53996
9 1 Cu 7.23 0 0 -6.82347e-16 -5.55112e-16 -6.10623e-16 -3.53996
10 1 Cu 9.0375 1.8075 0 1.37393e-15 -1.247e-17 -5.2516e-16 -3.53996
11 1 Cu 7.23 1.8075 1.8075 -2.19051e-16 4.16334e-17 1.21431e-17 -3.53996
12 1 Cu 9.0375 0 1.8075 1.35226e-15 -6.09166e-16 2.83248e-18 -3.53996
13 1 Cu 10.845 0 0 -1.34615e-15 -3.05311e-16 -3.66027e-16 -3.53996
14 1 Cu 12.6525 1.8075 0 1.22125e-15 -1.17961e-16 -5.88071e-16 -3.53996
15 1 Cu 10.845 1.8075 1.8075 -1.54043e-15 -8.50015e-17 -8.74951e-17 -3.53996
16 1 Cu 12.6525 0 1.8075 1.249e-15 -5.88071e-16 -2.94903e-17 -3.53996
17 1 Cu 0 3.615 0 -8.04912e-16 7.05816e-17 -8.11851e-16 -3.53996
18 1 Cu 1.8075 5.4225 0 0 -1.28698e-17 -1.04083e-15 -3.53996
19 1 Cu 0 5.4225 1.8075 -9.4369e-16 -1.22908e-16 6.93889e-18 -3.53996
20 1 Cu 1.8075 3.615 1.8075 1.38778e-17 1.40919e-16 5.04967e-17 -3.53996
21 1 Cu 3.615 3.615 0 8.31041e-17 1.29704e-16 -9.97073e-16 -3.53996
22 1 Cu 5.4225 5.4225 0 -9.42815e-17 -7.27644e-17 -1.06859e-15 -3.53996
23 1 Cu 3.615 5.4225 1.8075 5.18791e-17 -6.39129e-17 7.21808e-17 -3.53996
24 1 Cu 5.4225 3.615 1.8075 -5.9554e-17 5.80048e-18 8.60585e-17 -3.53996
25 1 Cu 7.23 3.615 0 -4.30706e-16 5.95227e-17 -9.02056e-16 -3.53996
26 1 Cu 9.0375 5.4225 0 1.31834e-15 -2.308e-17 -6.0985e-16 -3.53996
27 1 Cu 7.23 5.4225 1.8075 -2.47585e-16 -7.52673e-18 1.38778e-17 -3.53996
28 1 Cu 9.0375 3.615 1.8075 1.419e-15 1.17636e-17 -8.26704e-18 -3.53996
29 1 Cu 10.845 3.615 0 -1.38778e-15 6.01343e-17 -6.14092e-16 -3.53996
30 1 Cu 12.6525 5.4225 0 1.23512e-15 -2.48553e-17 -6.33174e-16 -3.53996
31 1 Cu 10.845 5.4225 1.8075 -1.40166e-15 -4.40186e-17 -5.20417e-17 -3.53996
32 1 Cu 12.6525 3.615 1.8075 1.29063e-15 1.29725e-16 -3.88144e-17 -3.53996
33 1 Cu 0 7.23 0 -5.82867e-16 -6.42444e-16 -6.07153e-16 -3.53996
34 1 Cu 1.8075 9.0375 0 -8.32667e-17 1.29662e-15 -5.20986e-16 -3.53996
35 1 Cu 0 9.0375 1.8075 -5.27356e-16 1.40513e-15 -3.18755e-17 -3.53996
36 1 Cu 1.8075 7.23 1.8075 -4.16334e-17 -1.84206e-16 2.94903e-17 -3.53996
37 1 Cu 3.615 7.23 0 4.99275e-17 -4.64597e-16 -8.59718e-16 -3.53996
38 1 Cu 5.4225 9.0375 0 2.90363e-18 1.28082e-15 -5.93824e-16 -3.53996
39 1 Cu 3.615 9.0375 1.8075 7.60839e-17 1.38002e-15 5.61075e-18 -3.53996
40 1 Cu 5.4225 7.23 1.8075 -6.23416e-19 -2.19859e-16 8.32667e-17 -3.53996
41 1 Cu 7.23 7.23 0 -4.55936e-16 -4.73138e-16 -6.80012e-16 -3.53996
42 1 Cu 9.0375 9.0375 0 1.09441e-15 1.06674e-15 -1.19073e-16 -3.53996
43 1 Cu 7.23 9.0375 1.8075 -4.32616e-16 1.16485e-15 -3.87907e-17 -3.53996
44 1 Cu 9.0375 7.23 1.8075 1.25771e-15 -4.5692e-16 -3.87907e-17 -3.53996
45 1 Cu 10.845 7.23 0 -1.22125e-15 -6.41617e-16 -4.44089e-16 -3.53996
46 1 Cu 12.6525 9.0375 0 1.02696e-15 1.14215e-15 -2.10444e-16 -3.53996
47 1 Cu 10.845 9.0375 1.8075 -1.29063e-15 1.2602e-15 -1.53686e-17 -3.53996
48 1 Cu 12.6525 7.23 1.8075 1.11022e-15 -4.79326e-16 -4.85723e-17 -3.53996
49 1 Cu 0 10.845 0 -3.05311e-16 -1.33227e-15 -3.59088e-16 -3.53996
50 1 Cu 1.8075 12.6525 0 -8.32667e-17 1.26635e-15 -5.63785e-16 -3.53996
51 1 Cu 0 12.6525 1.8075 -5.41234e-16 1.23339e-15 -4.68375e-17 -3.53996
52 1 Cu 1.8075 10.845 1.8075 -6.93889e-17 -1.39298e-15 -9.4434e-17 -3.53996
53 1 Cu 3.615 10.845 0 4.2826e-17 -1.31699e-15 -6.16862e-16 -3.53996
54 1 Cu 5.4225 12.6525 0 1.96258e-18 1.27676e-15 -6.40113e-16 -3.53996
55 1 Cu 3.615 12.6525 1.8075 1.12567e-16 1.27813e-15 1.66561e-17 -3.53996
56 1 Cu 5.4225 10.845 1.8075 -2.231e-17 -1.45717e-15 -5.20417e-17 -3.53996
57 1 Cu 7.23 10.845 0 -6.54764e-16 -1.16573e-15 -4.47559e-16 -3.53996
58 1 Cu 9.0375 12.6525 0 1.14734e-15 1.00062e-15 -1.8342e-16 -3.53996
59 1 Cu 7.23 12.6525 1.8075 -4.99182e-16 1.09635e-15 -6.93889e-18 -3.53996
60 1 Cu 9.0375 10.845 1.8075 1.11875e-15 -1.23367e-15 1.67204e-17 -3.53996
61 1 Cu 10.845 10.845 0 -1.15186e-15 -1.12237e-15 -1.66669e-16 -3.53996
62 1 Cu 12.6525 12.6525 0 1.05471e-15 1.09288e-15 -1.45717e-16 -3.53996
63 1 Cu 10.845 12.6525 1.8075 -1.29063e-15 1.05471e-15 -1.49078e-18 -3.53996
64 1 Cu 12.6525 10.845 1.8075 1.09635e-15 -1.249e-15 1.58294e-17 -3.53996
65 1 Cu 0 0 3.615 -7.35523e-16 -7.45931e-16 3.46403e-17 -3.53996
66 1 Cu 1.8075 1.8075 3.615 0 3.03577e-17 8.61941e-17 -3.53996
67 1 Cu 0 1.8075 5.4225 -9.71445e-16 2.08167e-17 -4.57533e-17 -3.53996
68 1 Cu 1.8075 0 5.4225 0 -1.00961e-15 1.85805e-17 -3.53996
69 1 Cu 3.615 0 3.615 1.04815e-16 -1.01309e-15 5.44473e-17 -3.53996
70 1 Cu 5.4225 1.8075 3.615 -5.71087e-17 6.93889e-17 1.05384e-16 -3.53996
71 1 Cu 3.615 1.8075 5.4225 7.93636e-17 9.85099e-17 -5.24568e-17 -3.53996
72 1 Cu 5.4225 0 5.4225 -8.39088e-17 -1.02696e-15 -8.57333e-17 -3.53996
73 1 Cu 7.23 0 3.615 -4.50799e-16 -8.60423e-16 -6.18537e-17 -3.53996
74 1 Cu 9.0375 1.8075 3.615 1.3236e-15 -1.24615e-17 6.5407e-17 -3.53996
75 1 Cu 7.23 1.8075 5.4225 -2.21732e-16 4.16334e-17 -6.83386e-17 -3.53996
76 1 Cu 9.0375 0 5.4225 1.26808e-15 -6.0987e-16 -3.9614e-17 -3.53996
77 1 Cu 10.845 0 3.615 -1.41553e-15 -6.14092e-16 1.61682e-17 -3.53996
78 1 Cu 12.6525 1.8075 3.615 1.30451e-15 -9.02056e-17 1.39157e-16 -3.53996
79 1 Cu 10.845 1.8075 5.4225 -1.45717e-15 -3.90313e-17 1.84314e-17 -3.53996
80 1 Cu 12.6525 0 5.4225 1.19349e-15 -5.96745e-16 -3.792e-17 -3.53996
81 1 Cu 0 3.615 3.615 -9.71445e-16 7.01479e-17 8.54351e-17 -3.53996
82 1 Cu 1.8075 5.4225 3.615 8.32667e-17 -6.98565e-17 1.22786e-16 -3.53996
83 1 Cu 0 5.4225 5.4225 -1.05471e-15 -9.76731e-17 -7.97024e-17 -3.53996
84 1 Cu 1.8075 3.615 5.4225 5.55112e-17 9.30517e-17 -1.30809e-16 -3.53996
85 1 Cu 3.615 3.615 3.615 4.85723e-17 6.13726e-17 2.41913e-18 -3.53996
86 1 Cu 5.4225 5.4225 3.615 -1.15905e-16 -8.91265e-17 1.0945e-16 -3.53996
87 1 Cu 3.615 5.4225 5.4225 5.24754e-17 -1.1403e-16 8.97855e-20 -3.53996
88 1 Cu 5.4225 3.615 5.4225 -9.51243e-17 7.68699e-17 -3.28022e-17 -3.53996
89 1 Cu 7.23 3.615 3.615 -1.80094e-16 1.5992e-18 9.9069e-18 -3.53996
90 1 Cu 9.0375 5.4225 3.615 1.32611e-15 -1.96715e-17 6.62244e-17 -3.53996
91 1 Cu 7.23 5.4225 5.4225 -2.9959e-16 2.28597e-17 6.0894e-17 -3.53996
92 1 Cu 9.0375 3.615 5.4225 1.37664e-15 7.16116e-17 -2.80673e-17 -3.53996
93 1 Cu 10.845 3.615 3.615 -1.41553e-15 3.53128e-17 7.84319e-17 -3.53996
94 1 Cu 12.6525 5.4225 3.615 1.27676e-15 -4.03052e-17 8.2833e-17 -3.53996
95 1 Cu 10.845 5.4225 5.4225 -1.38778e-15 -3.08727e-17 3.75134e-17 -3.53996
96 1 Cu 12.6525 3.615 5.4225 1.27676e-15 1.53008e-16 -1.19262e-17 -3.53996
97 1 Cu 0 7.23 3.615 -7.91034e-16 -4.03892e-16 -8.88504e-17 -3.53996
98 1 Cu 1.8075 9.0375 3.615 -8.32667e-17 1.36778e-15 1.32002e-17 -3.53996
99 1 Cu 0 9.0375 5.4225 -5.82867e-16 1.32717e-15 1.85128e-17 -3.53996
100 1 Cu 1.8075 7.23 5.4225 1.38778e-17 -2.30556e-16 -2.3866e-17 -3.53996
101 1 Cu 3.615 7.23 3.615 1.18476e-16 -2.49429e-16 -1.47384e-18 -3.53996
102 1 Cu 5.4225 9.0375 3.615 -5.75517e-18 1.28101e-15 4.70002e-17 -3.53996
103 1 Cu 3.615 9.0375 5.4225 8.38088e-17 1.30384e-15 8.01208e-18 -3.53996
104 1 Cu 5.4225 7.23 5.4225 1.75471e-17 -2.01003e-16 3.7471e-17 -3.53996
105 1 Cu 7.23 7.23 3.615 -2.7894e-16 -2.47711e-16 5.5728e-17 -3.53996
106 1 Cu 9.0375 9.0375 3.615 1.1484e-15 1.09466e-15 1.9082e-17 -3.53996
107 1 Cu 7.23 9.0375 5.4225 -4.33495e-16 1.12758e-15 6.4632e-17 -3.53996
108 1 Cu 9.0375 7.23 5.4225 1.17355e-15 -3.79788e-16 -6.77626e-20 -3.53996
109 1 Cu 10.845 7.23 3.615 -1.33227e-15 -4.18638e-16 -1.6053e-17 -3.53996
110 1 Cu 12.6525 9.0375 3.615 1.1241e-15 1.13258e-15 -3.98444e-18 -3.53996
111 1 Cu 10.845 9.0375 5.4225 -1.26288e-15 1.1512e-15 5.74085e-17 -3.53996
112 1 Cu 12.6525 7.23 5.4225 1.13798e-15 -4.56043e-16 -1.01373e-17 -3.53996
113 1 Cu 0 10.845 3.615 -5.68989e-16 -1.4086e-15 -5.0578e-17 -3.53996
114 1 Cu 1.8075 12.6525 3.615 -8.32667e-17 1.29063e-15 9.66295e-17 -3.53996
115 1 Cu 0 12.6525 5.4225 -5.82867e-16 1.24727e-15 -6.28566e-17 -3.53996
116 1 Cu 1.8075 10.845 5.4225 -2.77556e-17 -1.45283e-15 -3.11234e-17 -3.53996
117 1 Cu 3.615 10.845 3.615 7.77102e-17 -1.37249e-15 8.5425e-17 -3.53996
118 1 Cu 5.4225 12.6525 3.615 -6.22256e-17 1.27676e-15 2.9802e-17 -3.53996
119 1 Cu 3.615 12.6525 5.4225 1.05439e-16 1.26357e-15 -6.58865e-17 -3.53996
120 1 Cu 5.4225 10.845 5.4225 -4.31487e-17 -1.41553e-15 1.9353e-17 -3.53996
121 1 Cu 7.23 10.845 3.615 -4.32604e-16 -1.29063e-15 1.52009e-17 -3.53996
122 1 Cu 9.0375 12.6525 3.615 1.21429e-15 1.1394e-15 3.416e-17 -3.53996
123 1 Cu 7.23 12.6525 5.4225 -4.50797e-16 1.15186e-15 -4.17418e-18 -3.53996
124 1 Cu 9.0375 10.845 5.4225 1.18815e-15 -1.22049e-15 1.34034e-17 -3.53996
125 1 Cu 10.845 10.845 3.615 -1.26288e-15 -1.24727e-15 5.24483e-17 -3.53996
126 1 Cu 12.6525 12.6525 3.615 1.1241e-15 1.08767e-15 4.36933e-17 -3.53996
127 1 Cu 10.845 12.6525 5.4225 -1.249e-15 1.11022e-15 -6.80879e-17 -3.53996
128 1 Cu 12.6525 10.845 5.4225 1.1241e-15 -1.27676e-15 4.71899e-17 -3.53996
129 1 Cu 0 0 7.23 -5.96745e-16 -6.17562e-16 -5.5793e-16 -3.53996
130 1 Cu 1.8075 1.8075 7.23 -2.77556e-17 -9.54098e-18 -1.60313e-16 -3.53996
131 1 Cu 0 1.8075 9.0375 -5.82867e-16 -5.55112e-17 1.2799e-15 -3.53996
132 1 Cu 1.8075 0 9.0375 -6.93889e-17 -5.44703e-16 1.31647e-15 -3.53996
133 1 Cu 3.615 0 7.23 6.03901e-17 -8.18803e-16 -4.21333e-16 -3.53996
134 1 Cu 5.4225 1.8075 7.23 -5.3449e-17 1.38778e-17 -1.30402e-16 -3.53996
135 1 Cu 3.615 1.8075 9.0375 3.36916e-17 -6.79939e-17 1.37552e-15 -3.53996
136 1 Cu 5.4225 0 9.0375 1.32294e-17 -5.68989e-16 1.25502e-15 -3.53996
137 1 Cu 7.23 0 7.23 -4.5063e-16 -6.52256e-16 -3.94866e-16 -3.53996
138 1 Cu 9.0375 1.8075 7.23 1.19951e-15 2.84264e-18 -3.87148e-16 -3.53996
139 1 Cu 7.23 1.8075 9.0375 -4.37751e-16 -8.32667e-17 1.1846e-15 -3.53996
140 1 Cu 9.0375 0 9.0375 1.06242e-15 -9.63822e-17 1.058e-15 -3.53996
141 1 Cu 10.845 0 7.23 -1.249e-15 -4.92661e-16 -6.12019e-16 -3.53996
142 1 Cu 12.6525 1.8075 7.23 1.13798e-15 -3.46945e-17 -4.10642e-16 -3.53996
143 1 Cu 10.845 1.8075 9.0375 -1.20737e-15 -1.38778e-17 1.14011e-15 -3.53996
144 1 Cu 12.6525 0 9.0375 1.11022e-15 -1.94289e-16 1.07726e-15 -3.53996
145 1 Cu 0 3.615 7.23 -8.32667e-16 4.66207e-17 -4.3303e-16 -3.53996
146 1 Cu 1.8075 5.4225 7.23 1.38778e-17 -3.87365e-17 -1.8407e-16 -3.53996
147 1 Cu 0 5.4225 9.0375 -5.68989e-16 -5.82759e-18 1.21425e-15 -3.53996
148 1 Cu 1.8075 3.615 9.0375 -4.16334e-17 -1.51517e-17 1.40759e-15 -3.53996
149 1 Cu 3.615 3.615 7.23 6.91992e-17 9.92926e-17 -3.06241e-16 -3.53996
150 1 Cu 5.4225 5.4225 7.23 -6.47845e-17 -6.29803e-17 -1.93578e-16 -3.53996
151 1 Cu 3.615 5.4225 9.0375 9.95569e-17 2.01615e-17 1.25159e-15 -3.53996
152 1 Cu 5.4225 3.615 9.0375 1.22858e-17 8.91485e-17 1.25159e-15 -3.53996
153 1 Cu 7.23 3.615 7.23 -2.94391e-16 7.5081e-17 -2.57671e-16 -3.53996
154 1 Cu 9.0375 5.4225 7.23 1.17083e-15 -3.34917e-17 -4.13804e-16 -3.53996
155 1 Cu 7.23 5.4225 9.0375 -4.71567e-16 -1.10675e-16 1.1977e-15 -3.53996
156 1 Cu 9.0375 3.615 9.0375 1.17178e-15 5.60804e-17 1.1374e-15 -3.53996
157 1 Cu 10.845 3.615 7.23 -1.29063e-15 3.85773e-17 -4.55866e-16 -3.53996
158 1 Cu 12.6525 5.4225 7.23 1.15186e-15 -6.20977e-17 -4.00125e-16 -3.53996
159 1 Cu 10.845 5.4225 9.0375 -1.23512e-15 -3.277e-17 1.05986e-15 -3.53996
160 1 Cu 12.6525 3.615 9.0375 1.08247e-15 2.48282e-17 1.02439e-15 -3.53996
161 1 Cu 0 7.23 7.23 -6.80012e-16 -4.74067e-16 -4.27826e-16 -3.53996
162 1 Cu 1.8075 9.0375 7.23 -2.77556e-17 1.15172e-15 -3.8191e-16 -3.53996
163 1 Cu 0 9.0375 9.0375 -1.249e-16 1.06582e-15 1.09201e-15 -3.53996
164 1 Cu 1.8075 7.23 9.0375 -5.55112e-17 -4.30062e-16 1.08491e-15 -3.53996
165 1 Cu 3.615 7.23 7.23 -8.26975e-17 -3.00205e-16 -2.28026e-16 -3.53996
166 1 Cu 5.4225 9.0375 7.23 -1.18635e-17 1.12492e-15 -4.36276e-16 -3.53996
167 1 Cu 3.615 9.0375 9.0375 8.74274e-17 1.12417e-15 1.18445e-15 -3.53996
168 1 Cu 5.4225 7.23 9.0375 -3.53103e-17 -4.7166e-16 1.11686e-15 -3.53996
169 1 Cu 7.23 7.23 7.23 -3.64651e-16 -2.96902e-16 -2.72887e-16 -3.53996
170 1 Cu 9.0375 9.0375 7.23 9.50413e-16 1.02704e-15 -7.21055e-16 -3.53996
171 1 Cu 7.23 9.0375 9.0375 -7.43899e-16 1.00783e-15 9.70442e-16 -3.53996
172 1 Cu 9.0375 7.23 9.0375 9.43645e-16 -7.25078e-16 9.62309e-16 -3.53996
173 1 Cu 10.845 7.23 7.23 -1.1241e-15 -4.67034e-16 -4.59458e-16 -3.53996
174 1 Cu 12.6525 9.0375 7.23 9.99201e-16 9.43622e-16 -6.49925e-16 -3.53996
175 1 Cu 10.845 9.0375 9.0375 -1.01308e-15 9.87981e-16 9.39048e-16 -3.53996
176 1 Cu 12.6525 7.23 9.0375 9.29812e-16 -6.53638e-16 8.46491e-16 -3.53996
177 1 Cu 0 10.845 7.23 -4.02456e-16 -1.21431e-15 -6.06828e-16 -3.53996
178 1 Cu 1.8075 12.6525 7.23 -5.55112e-17 1.15533e-15 -4.22852e-16 -3.53996
179 1 Cu 0 12.6525 9.0375 -1.52656e-16 1.00787e-15 1.03728e-15 -3.53996
180 1 Cu 1.8075 10.845 9.0375 -1.38778e-17 -1.21517e-15 1.14541e-15 -3.53996
181 1 Cu 3.615 10.845 7.23 1.18314e-16 -1.30169e-15 -4.37496e-16 -3.53996
182 1 Cu 5.4225 12.6525 7.23 -6.40298e-17 1.16573e-15 -3.71665e-16 -3.53996
183 1 Cu 3.615 12.6525 9.0375 8.05291e-17 1.11091e-15 1.10943e-15 -3.53996
184 1 Cu 5.4225 10.845 9.0375 -6.42898e-19 -1.23512e-15 1.12736e-15 -3.53996
185 1 Cu 7.23 10.845 7.23 -4.49859e-16 -1.08247e-15 -4.49835e-16 -3.53996
186 1 Cu 9.0375 12.6525 7.23 1.06314e-15 9.46549e-16 -6.38006e-16 -3.53996
187 1 Cu 7.23 12.6525 9.0375 -7.16173e-16 9.57567e-16 9.10134e-16 -3.53996
188 1 Cu 9.0375 10.845 9.0375 9.58204e-16 -9.84561e-16 9.35567e-16 -3.53996
189 1 Cu 10.845 10.845 7.23 -1.02696e-15 -1.01221e-15 -6.67882e-16 -3.53996
190 1 Cu 12.6525 12.6525 7.23 8.88178e-16 9.87058e-16 -5.97124e-16 -3.53996
191 1 Cu 10.845 12.6525 9.0375 -9.99201e-16 8.22259e-16 8.42351e-16 -3.53996
192 1 Cu 12.6525 10.845 9.0375 8.32667e-16 -9.64506e-16 9.0726e-16 -3.53996
193 1 Cu 0 0 10.845 -3.19189e-16 -3.50414e-16 -1.334e-15 -3.53996
194 1 Cu 1.8075 1.8075 10.845 -8.32667e-17 -8.41341e-17 -1.33911e-15 -3.53996
195 1 Cu 0 1.8075 12.6525 -6.245e-16 -9.02056e-17 1.23426e-15 -3.53996
196 1 Cu 1.8075 0 12.6525 -1.11022e-16 -6.45317e-16 1.22471e-15 -3.53996
197 1 Cu 3.615 0 10.845 1.34929e-16 -6.5227e-16 -1.37803e-15 -3.53996
198 1 Cu 5.4225 1.8075 10.845 -6.566e-17 -9.71445e-17 -1.4112e-15 -3.53996
199 1 Cu 3.615 1.8075 12.6525 8.66006e-17 -2.63605e-17 1.32048e-15 -3.53996
200 1 Cu 5.4225 0 12.6525 -1.58268e-18 -5.82867e-16 1.30798e-15 -3.53996
201 1 Cu 7.23 0 10.845 -6.89314e-16 -3.88578e-16 -1.19349e-15 -3.53996
202 1 Cu 9.0375 1.8075 10.845 1.15768e-15 -5.40932e-17 -1.14706e-15 -3.53996
203 1 Cu 7.23 1.8075 12.6525 -4.80857e-16 -5.55112e-17 1.14145e-15 -3.53996
204 1 Cu 9.0375 0 12.6525 1.14043e-15 -1.10978e-16 1.00105e-15 -3.53996
205 1 Cu 10.845 0 10.845 -1.11022e-15 -1.45717e-16 -1.11773e-15 -3.53996
206 1 Cu 12.6525 1.8075 10.845 1.1241e-15 -8.32667e-17 -1.14031e-15 -3.53996
207 1 Cu 10.845 1.8075 12.6525 -1.20737e-15 -5.37764e-17 9.85133e-16 -3.53996
208 1 Cu 12.6525 0 12.6525 1.06859e-15 -7.97973e-17 1.11716e-15 -3.53996
209 1 Cu 0 3.615 10.845 -6.38378e-16 1.21051e-16 -1.32251e-15 -3.53996
210 1 Cu 1.8075 5.4225 10.845 -6.93889e-17 -1.28563e-17 -1.36696e-15 -3.53996
211 1 Cu 0 5.4225 12.6525 -5.82867e-16 3.57312e-17 1.25941e-15 -3.53996
212 1 Cu 1.8075 3.615 12.6525 -6.93889e-17 1.29806e-16 1.33506e-15 -3.53996
213 1 Cu 3.615 3.615 10.845 1.2368e-16 1.33235e-16 -1.42303e-15 -3.53996
214 1 Cu 5.4225 5.4225 10.845 -2.14884e-17 6.43914e-18 -1.41553e-15 -3.53996
215 1 Cu 3.615 5.4225 12.6525 1.36989e-16 -7.69487e-17 1.3212e-15 -3.53996
216 1 Cu 5.4225 3.615 12.6525 -6.39349e-17 1.1956e-16 1.30732e-15 -3.53996
217 1 Cu 7.23 3.615 10.845 -4.43688e-16 2.29851e-17 -1.31555e-15 -3.53996
218 1 Cu 9.0375 5.4225 10.845 1.12979e-15 -5.70155e-17 -1.20517e-15 -3.53996
219 1 Cu 7.23 5.4225 12.6525 -4.42812e-16 -8.47118e-18 1.15186e-15 -3.53996
220 1 Cu 9.0375 3.615 12.6525 1.1405e-15 1.78622e-17 1.18528e-15 -3.53996
221 1 Cu 10.845 3.615 10.845 -1.22125e-15 2.72863e-17 -1.24618e-15 -3.53996
222 1 Cu 12.6525 5.4225 10.845 1.16573e-15 -1.69407e-17 -1.17961e-15 -3.53996
223 1 Cu 10.845 5.4225 12.6525 -1.22125e-15 -4.57262e-17 1.16573e-15 -3.53996
224 1 Cu 12.6525 3.615 12.6525 1.13798e-15 5.43456e-17 1.15121e-15 -3.53996
225 1 Cu 0 7.23 10.845 -4.16334e-16 -5.91243e-16 -1.21431e-15 -3.53996
226 1 Cu 1.8075 9.0375 10.845 -4.16334e-17 1.16025e-15 -1.21574e-15 -3.53996
227 1 Cu 0 9.0375 12.6525 -1.38778e-16 1.11879e-15 1.00375e-15 -3.53996
228 1 Cu 1.8075 7.23 12.6525 -1.11022e-16 -4.8373e-16 1.01655e-15 -3.53996
229 1 Cu 3.615 7.23 10.845 4.12539e-17 -4.45546e-16 -1.24546e-15 -3.53996
230 1 Cu 5.4225 9.0375 10.845 2.19339e-17 1.17574e-15 -1.1073e-15 -3.53996
231 1 Cu 3.615 9.0375 12.6525 6.31819e-17 1.13182e-15 1.17069e-15 -3.53996
232 1 Cu 5.4225 7.23 12.6525 -3.02027e-17 -4.65185e-16 1.06859e-15 -3.53996
233 1 Cu 7.23 7.23 10.845 -5.42572e-16 -5.47241e-16 -1.08247e-15 -3.53996
234 1 Cu 9.0375 9.0375 10.845 9.89334e-16 1.00254e-15 -9.65618e-16 -3.53996
235 1 Cu 7.23 9.0375 12.6525 -7.30021e-16 9.65245e-16 9.04928e-16 -3.53996
236 1 Cu 9.0375 7.23 12.6525 9.35656e-16 -7.31781e-16 9.47278e-16 -3.53996
237 1 Cu 10.845 7.23 10.845 -1.04083e-15 -6.70308e-16 -1.00961e-15 -3.53996
238 1 Cu 12.6525 9.0375 10.845 8.46545e-16 9.19173e-16 -8.9219e-16 -3.53996
239 1 Cu 10.845 9.0375 12.6525 -9.71445e-16 9.21759e-16 8.28602e-16 -3.53996
240 1 Cu 12.6525 7.23 12.6525 8.60423e-16 -6.77925e-16 9.4022e-16 -3.53996
241 1 Cu 0 10.845 10.845 -1.66533e-16 -1.1588e-15 -1.15262e-15 -3.53996
242 1 Cu 1.8075 12.6525 10.845 -2.77556e-17 1.17267e-15 -1.23857e-15 -3.53996
243 1 Cu 0 12.6525 12.6525 -1.38778e-16 1.06165e-15 1.11716e-15 -3.53996
244 1 Cu 1.8075 10.845 12.6525 -4.16334e-17 -1.15706e-15 1.17452e-15 -3.53996
245 1 Cu 3.615 10.845 10.845 9.23198e-17 -1.16432e-15 -1.17262e-15 -3.53996
246 1 Cu 5.4225 12.6525 10.845 -4.99411e-18 1.09635e-15 -1.14492e-15 -3.53996
247 1 Cu 3.615 12.6525 12.6525 1.24765e-16 1.08245e-15 1.17995e-15 -3.53996
248 1 Cu 5.4225 10.845 12.6525 2.80453e-18 -1.22125e-15 1.09981e-15 -3.53996
249 1 Cu 7.23 10.845 10.845 -7.23192e-16 -1.01308e-15 -1.00787e-15 -3.53996
250 1 Cu 9.0375 12.6525 10.845 9.49598e-16 8.341e-16 -8.79051e-16 -3.53996
251 1 Cu 7.23 12.6525 12.6525 -7.36977e-16 8.88178e-16 9.14199e-16 -3.53996
252 1 Cu 9.0375 10.845 12.6525 9.49653e-16 -9.29764e-16 7.73805e-16 -3.53996
253 1 Cu 10.845 10.845 10.845 -9.99201e-16 -9.94864e-16 -9.29947e-16 -3.53996
254 1 Cu 12.6525 12.6525 10.845 8.60423e-16 8.84709e-16 -1.01828e-15 -3.53996
255 1 Cu 10.845 12.6525 12.6525 -1.05471e-15 8.46545e-16 8.55219e-16 -3.53996
256 1 Cu 12.6525 10.845 12.6525 8.32667e-16 -1.04777e-15 9.00321e-16 -3.53996
ITEM: TIMESTEP
1
ITEM: NUMBER OF ATOMS
256
ITEM: BOX BOUNDS pp pp pp
0.0000000000000000e+00 1.4460000000000001e+01
0.0000000000000000e+00 1.4460000000000001e+01
0.0000000000000000e+00 1.4460000000000001e+01
ITEM: ATOMS id type element x y z fx fy fz c_energy
1 1 Cu -1.76011e-16 -1.77169e-16 -1.79485e-16 -3.88578e-16 -3.53884e-16 -3.50414e-16 -3.53996
2 1 Cu 1.8075 1.8075 -3.39284e-16 -3.05311e-16 -2.34188e-16 1.52263e-16 -3.53996
3 1 Cu -3.61285e-16 1.8075 1.8075 1.38778e-16 -2.35922e-16 -2.13208e-16 -3.53996
4 1 Cu 1.8075 -3.48547e-16 1.8075 -2.77556e-16 1.76942e-16 -2.04521e-16 -3.53996
5 1 Cu 3.615 -2.73284e-16 -2.68648e-16 2.12937e-16 -3.19203e-16 -2.25501e-16 -3.53996
6 1 Cu 5.4225 1.8075 -3.57811e-16 -2.56964e-17 -1.94289e-16 -1.66533e-16 -3.53996
7 1 Cu 3.615 1.8075 1.8075 5.11201e-17 -2.74788e-16 -2.42673e-16 -3.53996
8 1 Cu 5.4225 -3.10335e-16 1.8075 -6.47472e-17 -3.60822e-16 -2.35922e-16 -3.53996
9 1 Cu 7.23 -1.85274e-16 -2.03802e-16 -7.0048e-16 -2.35922e-16 -2.41127e-16 -3.53996
10 1 Cu 9.0375 1.8075 -1.75278e-16 1.3633e-15 -6.79812e-17 -1.08827e-16 -3.53996
11 1 Cu 7.23 1.8075 1.8075 -3.92442e-16 -2.498e-16 -2.28116e-16 -3.53996
12 1 Cu 9.0375 -2.03316e-16 1.8075 1.29648e-15 -1.23443e-16 -1.10453e-17 -3.53996
13 1 Cu 10.845 -1.01901e-16 -1.22165e-16 -1.36002e-15 -3.01842e-16 -1.51788e-16 -3.53996
14 1 Cu 12.6525 1.8075 -1.96275e-16 1.02696e-15 -1.59595e-16 -2.88831e-16 -3.53996
15 1 Cu 10.845 1.8075 1.8075 -1.42941e-15 -2.05565e-16 -2.1066e-16 -3.53996
16 1 Cu 12.6525 -1.96275e-16 1.8075 1.11022e-15 -2.68882e-16 -1.52656e-16 -3.53996
17 1 Cu -2.68648e-16 3.615 -2.70964e-16 -2.35922e-16 1.32002e-16 -2.2031e-16 -3.53996
18 1 Cu 1.8075 5.4225 -3.47389e-16 -1.94289e-16 -1.36525e-17 -1.63064e-16 -3.53996
19 1 Cu -3.14966e-16 5.4225 1.8075 -2.77556e-16 -7.78322e-17 -1.80411e-16 -3.53996
20 1 Cu 1.8075 3.615 1.8075 -3.05311e-16 8.99617e-17 -1.84558e-16 -3.53996
21 1 Cu 3.615 3.615 -3.32784e-16 8.31854e-17 1.29806e-16 -1.50508e-16 -3.53996
22 1 Cu 5.4225 5.4225 -3.56653e-16 -6.20638e-17 -4.5849e-17 -1.94289e-16 -3.53996
23 1 Cu 3.615 5.4225 1.8075 2.25514e-17 -1.33288e-16 -2.88642e-16 -3.53996
24 1 Cu 5.4225 3.615 1.8075 -1.54096e-16 -3.55076e-17 -3.30275e-16 -3.53996
25 1 Cu 7.23 3.615 -3.01071e-16 -5.13124e-16 7.43221e-17 -1.38758e-16 -3.53996
26 1 Cu 9.0375 5.4225 -2.03544e-16 1.32858e-15 -1.78758e-17 -2.62905e-16 -3.53996
27 1 Cu 7.23 5.4225 1.8075 -3.2394e-16 -4.56907e-17 -3.46945e-16 -3.53996
28 1 Cu 9.0375 3.615 1.8075 1.31999e-15 2.91108e-17 -2.58067e-16 -3.53996
29 1 Cu 10.845 3.615 -2.0496e-16 -1.40166e-15 2.64156e-17 -1.9082e-16 -3.53996
30 1 Cu 12.6525 5.4225 -2.11329e-16 1.09635e-15 -7.34547e-18 -2.42861e-16 -3.53996
31 1 Cu 10.845 5.4225 1.8075 -1.47105e-15 3.33121e-17 -2.61943e-16 -3.53996
32 1 Cu 12.6525 3.615 1.8075 1.1241e-15 8.38359e-17 -3.44126e-16 -3.53996
33 1 Cu -1.94538e-16 7.23 -2.02644e-16 -2.63678e-16 -6.06611e-16 -2.74086e-16 -3.53996
34 1 Cu 1.8075 9.0375 -1.73885e-16 -9.71445e-17 1.29901e-15 -6.64887e-17 -3.53996
35 1 Cu -1.76011e-16 9.0375 1.8075 -1.38778e-16 1.27811e-15 -4.57533e-17 -3.53996
36 1 Cu 1.8075 7.23 1.8075 -2.498e-16 -4.01033e-16 -1.71738e-16 -3.53996
37 1 Cu 3.615 7.23 -2.8694e-16 7.07442e-17 -4.74888e-16 -1.38053e-16 -3.53996
38 1 Cu 5.4225 9.0375 -1.98195e-16 -1.61783e-17 1.31465e-15 -2.60757e-16 -3.53996
39 1 Cu 3.615 9.0375 1.8075 6.64074e-18 1.30006e-15 -2.85823e-16 -3.53996
40 1 Cu 5.4225 7.23 1.8075 -7.34818e-17 -3.06433e-16 -2.63678e-16 -3.53996
41 1 Cu 7.23 7.23 -2.26961e-16 -5.0795e-16 -4.73138e-16 -1.11022e-16 -3.53996
42 1 Cu 9.0375 9.0375 -3.97417e-17 1.10829e-15 1.10837e-15 -1.19073e-16 -3.53996
43 1 Cu 7.23 9.0375 1.8075 -5.50686e-16 1.17862e-15 -1.49813e-16 -3.53996
44 1 Cu 9.0375 7.23 1.8075 1.23679e-15 -4.98445e-16 -1.77569e-16 -3.53996
45 1 Cu 10.845 7.23 -1.48219e-16 -1.19349e-15 -6.24189e-16 -1.76942e-16 -3.53996
46 1 Cu 12.6525 9.0375 -7.02378e-17 9.57567e-16 1.13955e-15 -2.85037e-16 -3.53996
47 1 Cu 10.845 9.0375 1.8075 -1.249e-15 1.20891e-15 -1.18991e-17 -3.53996
48 1 Cu 12.6525 7.23 1.8075 1.06859e-15 -4.74989e-16 -2.84495e-16 -3.53996
49 1 Cu -1.01901e-16 10.845 -1.19849e-16 -3.19189e-16 -1.35308e-15 -9.45424e-17 -3.53996
50 1 Cu 1.8075 12.6525 -1.88169e-16 -1.66533e-16 1.00267e-15 -2.91e-16 -3.53996
51 1 Cu -1.80643e-16 12.6525 1.8075 -2.63678e-16 1.03216e-15 -1.56125e-16 -3.53996
52 1 Cu 1.8075 10.845 1.8075 -2.22045e-16 -1.36609e-15 -1.96783e-16 -3.53996
53 1 Cu 3.615 10.845 -2.05884e-16 9.05309e-17 -1.40026e-15 -2.17876e-16 -3.53996
54 1 Cu 5.4225 12.6525 -2.13645e-16 -1.25485e-16 1.09635e-15 -2.11636e-16 -3.53996
55 1 Cu 3.615 12.6525 1.8075 6.30735e-17 9.5894e-16 -3.09472e-16 -3.53996
56 1 Cu 5.4225 10.845 1.8075 -3.27455e-17 -1.44329e-15 -2.77556e-16 -3.53996
57 1 Cu 7.23 10.845 -1.49377e-16 -7.09299e-16 -1.22125e-15 -1.63064e-16 -3.53996
58 1 Cu 9.0375 12.6525 -6.12183e-17 1.14734e-15 8.896e-16 -2.61482e-16 -3.53996
59 1 Cu 7.23 12.6525 1.8075 -4.74123e-16 9.4369e-16 -2.42861e-16 -3.53996
60 1 Cu 9.0375 10.845 1.8075 1.12731e-15 -1.24755e-15 -1.01678e-17 -3.53996
61 1 Cu 10.845 10.845 -5.56275e-17 -1.15186e-15 -1.17614e-15 -1.69949e-16 -3.53996
62 1 Cu 12.6525 12.6525 -4.86345e-17 1.04083e-15 9.95731e-16 -2.98372e-16 -3.53996
63 1 Cu 10.845 12.6525 1.8075 -1.31839e-15 9.54098e-16 -7.34818e-17 -3.53996
64 1 Cu 12.6525 10.845 1.8075 1.01308e-15 -1.26288e-15 -7.60568e-17 -3.53996
65 1 Cu -2.45489e-16 -2.48962e-16 3.615 -1.94289e-16 -2.32453e-16 -1.19804e-17 -3.53996
66 1 Cu 1.8075 1.8075 3.615 -2.22045e-16 -2.15973e-16 1.1601e-17 -3.53996
67 1 Cu -3.2423e-16 1.8075 5.4225 -3.33067e-16 -2.77556e-16 -4.92499e-17 -3.53996
68 1 Cu 1.8075 -3.36968e-16 5.4225 -9.71445e-17 -1.94289e-16 -9.16286e-17 -3.53996
69 1 Cu 3.615 -3.38129e-16 3.615 1.47451e-16 -1.11039e-16 2.49028e-17 -3.53996
70 1 Cu 5.4225 1.8075 3.615 -9.35378e-17 -3.19189e-16 -5.52943e-18 -3.53996
71 1 Cu 3.615 1.8075 5.4225 2.74845e-17 -3.03946e-16 -1.04607e-16 -3.53996
72 1 Cu 5.4225 -3.42758e-16 5.4225 -5.44507e-17 -1.249e-16 -1.60313e-16 -3.53996
73 1 Cu 7.23 -2.87175e-16 3.615 -4.8874e-16 -1.11022e-16 -7.93094e-17 -3.53996
74 1 Cu 9.0375 1.8075 3.615 1.33043e-15 -2.06751e-16 3.7543e-17 -3.53996
75 1 Cu 7.23 1.8075 5.4225 -3.18877e-16 -3.05311e-16 -1.61885e-17 -3.53996
76 1 Cu 9.0375 -2.03551e-16 5.4225 1.29573e-15 -2.49048e-16 2.79047e-17 -3.53996
77 1 Cu 10.845 -2.0496e-16 3.615 -1.3739e-15 -2.08167e-16 -8.29279e-17 -3.53996
78 1 Cu 12.6525 1.8075 3.615 1.08247e-15 -3.26128e-16 9.58164e-17 -3.53996
79 1 Cu 10.845 1.8075 5.4225 -1.40166e-15 -2.38524e-16 4.71086e-17 -3.53996
80 1 Cu 12.6525 -1.9917e-16 5.4225 1.05471e-15 -2.04697e-16 -6.29379e-17 -3.53996
81 1 Cu -3.2423e-16 3.615 3.615 -1.94289e-16 6.14743e-17 -4.71628e-18 -3.53996
82 1 Cu 1.8075 5.4225 3.615 -2.91434e-16 -1.27102e-16 -1.16498e-16 -3.53996
83 1 Cu -3.52021e-16 5.4225 5.4225 -1.52656e-16 -9.86895e-17 -1.00492e-16 -3.53996
84 1 Cu 1.8075 3.615 5.4225 -2.77556e-16 2.05185e-17 -1.13462e-16 -3.53996
85 1 Cu 3.615 3.615 3.615 2.45301e-17 -2.8562e-17 -7.38545e-17 -3.53996
86 1 Cu 5.4225 5.4225 3.615 -1.09021e-16 -9.61738e-17 1.23057e-17 -3.53996
87 1 Cu 3.615 5.4225 5.4225 -1.66967e-17 -1.07091e-16 -3.47131e-17 -3.53996
88 1 Cu 5.4225 3.615 5.4225 -1.02063e-16 -3.40439e-17 -4.668e-17 -3.53996
89 1 Cu 7.23 3.615 3.615 -2.77238e-16 5.72188e-17 -3.85569e-17 -3.53996
90 1 Cu 9.0375 5.4225 3.615 1.31225e-15 5.6653e-17 1.07031e-17 -3.53996
91 1 Cu 7.23 5.4225 5.4225 -3.06529e-16 2.28597e-17 8.86496e-17 -3.53996
92 1 Cu 9.0375 3.615 5.4225 1.35582e-15 -1.16552e-17 4.13217e-17 -3.53996
93 1 Cu 10.845 3.615 3.615 -1.45717e-15 -3.58109e-17 3.33291e-17 -3.53996
94 1 Cu 12.6525 5.4225 3.615 9.71445e-16 -5.39933e-17 3.77302e-17 -3.53996
95 1 Cu 10.845 5.4225 5.4225 -1.41553e-15 -2.12775e-17 4.18773e-17 -3.53996
96 1 Cu 12.6525 3.615 5.4225 9.02056e-16 9.40816e-17 4.33681e-19 -3.53996
97 1 Cu -2.64016e-16 7.23 3.615 -9.71445e-17 -4.59295e-16 -9.9584e-17 -3.53996
98 1 Cu 1.8075 9.0375 3.615 -3.05311e-16 1.33471e-15 1.32002e-17 -3.53996
99 1 Cu -1.94538e-16 9.0375 5.4225 -1.80411e-16 1.28532e-15 2.1928e-17 -3.53996
100 1 Cu 1.8075 7.23 5.4225 -3.19189e-16 -3.41469e-16 -4.81521e-17 -3.53996
101 1 Cu 3.615 7.23 3.615 -6.20706e-18 -3.11879e-16 -1.12388e-16 -3.53996
102 1 Cu 5.4225 9.0375 3.615 2.20004e-17 1.26713e-15 -1.46367e-18 -3.53996
103 1 Cu 3.615 9.0375 5.4225 7.68699e-17 1.35935e-15 3.57677e-17 -3.53996
104 1 Cu 5.4225 7.23 5.4225 4.70374e-17 -2.28758e-16 3.7471e-17 -3.53996
105 1 Cu 7.23 7.23 3.615 -3.06696e-16 -2.75684e-16 -8.29415e-17 -3.53996
106 1 Cu 9.0375 9.0375 3.615 1.14829e-15 1.03915e-15 -8.5652e-18 -3.53996
107 1 Cu 7.23 9.0375 5.4225 -4.40434e-16 1.12758e-15 6.4632e-17 -3.53996
108 1 Cu 9.0375 7.23 5.4225 1.17355e-15 -3.79788e-16 5.54434e-17 -3.53996
109 1 Cu 10.845 7.23 3.615 -1.34615e-15 -4.05614e-16 -6.54926e-17 -3.53996
110 1 Cu 12.6525 9.0375 3.615 9.15934e-16 1.1456e-15 -1.10318e-17 -3.53996
111 1 Cu 10.845 9.0375 5.4225 -1.23512e-15 1.15204e-15 5.39391e-17 -3.53996
112 1 Cu 12.6525 7.23 5.4225 8.46545e-16 -3.65728e-16 -2.3744e-17 -3.53996
113 1 Cu -1.89906e-16 10.845 3.615 -1.38778e-16 -1.32533e-15 -4.03865e-17 -3.53996
114 1 Cu 1.8075 12.6525 3.615 -2.77556e-16 9.57567e-16 4.47504e-17 -3.53996
115 1 Cu -1.94538e-16 12.6525 5.4225 -2.498e-16 9.33281e-16 -6.27753e-17 -3.53996
116 1 Cu 1.8075 10.845 5.4225 -2.77556e-16 -1.38518e-15 -1.09999e-16 -3.53996
117 1 Cu 3.615 10.845 3.615 1.69949e-17 -1.40025e-15 4.76033e-18 -3.53996
118 1 Cu 5.4225 12.6525 3.615 -1.05594e-16 9.29812e-16 -1.3539e-17 -3.53996
119 1 Cu 3.615 12.6525 5.4225 7.77373e-17 9.16618e-16 -6.55409e-17 -3.53996
120 1 Cu 5.4225 10.845 5.4225 -1.19034e-17 -1.41553e-15 2.97885e-17 -3.53996
121 1 Cu 7.23 10.845 3.615 -4.20461e-16 -1.31839e-15 -5.61583e-18 -3.53996
122 1 Cu 9.0375 12.6525 3.615 1.2299e-15 8.89603e-16 9.87386e-18 -3.53996
123 1 Cu 7.23 12.6525 5.4225 -3.74415e-16 8.74301e-16 -1.44199e-17 -3.53996
124 1 Cu 9.0375 10.845 5.4225 1.18986e-15 -1.20663e-15 1.86144e-17 -3.53996
125 1 Cu 10.845 10.845 3.615 -1.26288e-15 -1.26201e-15 5.67851e-17 -3.53996
126 1 Cu 12.6525 12.6525 3.615 9.71445e-16 9.05526e-16 3.24176e-17 -3.53996
127 1 Cu 10.845 12.6525 5.4225 -1.249e-15 8.98587e-16 -6.62448e-17 -3.53996
128 1 Cu 12.6525 10.845 5.4225 9.02056e-16 -1.27676e-15 3.34476e-17 -3.53996
129 1 Cu -1.9917e-16 -2.06118e-16 7.23 -2.35922e-16 -2.68882e-16 -6.37619e-16 -3.53996
130 1 Cu 1.8075 1.8075 7.23 -2.22045e-16 -2.71484e-16 -4.03933e-16 -3.53996
131 1 Cu -1.94538e-16 1.8075 9.0375 -1.38778e-16 -4.85723e-17 1.31774e-15 -3.53996
132 1 Cu 1.8075 -1.818e-16 9.0375 -6.93889e-17 -5.89806e-17 1.33869e-15 -3.53996
133 1 Cu 3.615 -2.73284e-16 7.23 1.52873e-17 -1.38791e-16 -4.78524e-16 -3.53996
134 1 Cu 5.4225 1.8075 7.23 -3.62102e-17 -3.05311e-16 -2.95093e-16 -3.53996
135 1 Cu 3.615 1.8075 9.0375 2.3229e-17 -3.03916e-16 1.34755e-15 -3.53996
136 1 Cu 5.4225 -1.89906e-16 9.0375 -1.79956e-17 -1.52656e-16 1.29633e-15 -3.53996
137 1 Cu 7.23 -2.17697e-16 7.23 -5.02645e-16 -1.94289e-16 -4.24465e-16 -3.53996
138 1 Cu 9.0375 1.8075 7.23 1.15696e-15 -1.35935e-16 -5.15518e-16 -3.53996