ITEM: TIMESTEP
0
ITEM: NUMBER OF ATOMS
256
ITEM: BOX BOUNDS pp pp pp
0.0000000000000000e+00 1.4460000000000001e+01
0.0000000000000000e+00 1.4460000000000001e+01
0.0000000000000000e+00 1.4460000000000001e+01
ITEM: ATOMS id type element xsu ysu zsu fx fy fz
1 1 Cu                    0                    0                    0 -5.27355936696949e-16 -5.30825383648903e-16 -5.3776427755281e-16
2 1 Cu                0.125                0.125                    0 -9.71445146547012e-17 -4.25007251614318e-17 -1.01654795692241e-15
3 1 Cu                    0                0.125                0.125 -1.08246744900953e-15 -4.16333634234434e-17 2.35813972515597e-17
4 1 Cu                0.125                    0                0.125 -8.32667268468867e-17 -1.04430353253804e-15 -4.40592657843797e-17
5 1 Cu                 0.25                    0                    0 1.30537941567255e-16 -8.18803033188209e-16 -8.04910845820291e-16
6 1 Cu                0.375                0.125                    0 -3.18289570589748e-17                    0 -1.07205910815367e-15
7 1 Cu                 0.25                0.125                0.125 7.35089072945172e-17 8.60348305185138e-17 8.69242151131308e-17
8 1 Cu                0.375                    0                0.125 -3.6149672122919e-17 -9.29811783123569e-16                    0
9 1 Cu                  0.5                    0                    0 -6.82346872418488e-16 -5.55111512312578e-16 -6.10622663543836e-16
10 1 Cu                0.625                0.125                    0 1.37392809802794e-15 -1.24700190494778e-17 -5.25160427297666e-16
11 1 Cu                  0.5                0.125                0.125 -2.19051190489435e-16 4.16333634234434e-17 1.21430643318376e-17
12 1 Cu                0.625                    0                0.125 1.35225760710539e-15 -6.09165766874559e-16 2.83247817561838e-18
13 1 Cu                 0.75                    0                    0  -1.346145417358e-15 -3.05311331771918e-16 -3.66026653431106e-16
14 1 Cu                0.875                0.125                    0 1.22124532708767e-15 -1.17961196366423e-16 -5.88071258356138e-16
15 1 Cu                 0.75                0.125                0.125 -1.5404344466674e-15 -8.50014503228635e-17 -8.74951153195802e-17
16 1 Cu                0.875                    0                0.125  1.2490009027033e-15 -5.88071258356138e-16 -2.94902990916057e-17
17 1 Cu                    0                 0.25                    0 -8.04911692853238e-16 7.05815614288063e-17 -8.11850586757146e-16
18 1 Cu                0.125                0.375                    0                    0 -1.28698186005818e-17 -1.04083408558608e-15
19 1 Cu                    0                0.375                0.125 -9.43689570931383e-16 -1.22907868778388e-16 6.93889390390723e-18
20 1 Cu                0.125                 0.25                0.125 1.38777878078145e-17 1.40919177368803e-16 5.04967161835124e-17
21 1 Cu                 0.25                 0.25                    0 8.31040965210139e-17 1.29704461147157e-16 -9.97072975399138e-16
22 1 Cu                0.375                0.375                    0 -9.42815432929817e-17 -7.27643653338807e-17 -1.06858966120171e-15
23 1 Cu                 0.25                0.375                0.125 5.18790739534314e-17 -6.39128710350732e-17 7.21807596332225e-17
24 1 Cu                0.375                 0.25                0.125 -5.95540394885026e-17 5.80048162279745e-18 8.60585474410369e-17
25 1 Cu                  0.5                 0.25                    0 -4.30706089283445e-16 5.95226992694542e-17 -9.0205620750794e-16
26 1 Cu                0.625                0.375                    0 1.31833563163375e-15 -2.30799537467852e-17 -6.0985016949594e-16
27 1 Cu                  0.5                0.375                0.125 -2.4758518938359e-16 -7.52673476930171e-18 1.38777878078145e-17
28 1 Cu                0.625                 0.25                0.125 1.41900041521724e-15 1.17635935714677e-17 -8.26704156520197e-18
29 1 Cu                 0.75                 0.25                    0 -1.38777878078145e-15 6.01342570573718e-17 -6.1409211049579e-16
30 1 Cu                0.875                0.375                    0 1.23512311489549e-15 -2.48553348042302e-17 -6.33174068731535e-16
31 1 Cu                 0.75                0.375                0.125 -1.40165656858926e-15 -4.40186082029115e-17 -5.20417042793042e-17
32 1 Cu                0.875                 0.25                0.125 1.29063426612674e-15 1.29724789937891e-16 -3.88144377749811e-17
33 1 Cu                    0                  0.5                    0 -5.82867087928207e-16 -6.42443997306286e-16 -6.07153216591882e-16
34 1 Cu                0.125                0.625                    0 -8.32667268468867e-17 1.29662448312973e-15 -5.20986248933597e-16
35 1 Cu                    0                0.625                0.125 -5.27355936696949e-16 1.40512601554121e-15 -3.18755438710738e-17
36 1 Cu                0.125                  0.5                0.125 -4.16333634234434e-17 -1.84205949105287e-16 2.94902990916057e-17
37 1 Cu                 0.25                  0.5                    0 4.99275100429575e-17 -4.64596724536036e-16 -8.59718112672381e-16
38 1 Cu                0.375                0.625                    0 2.90362894318774e-18 1.28082223646575e-15 -5.93824306133889e-16
39 1 Cu                 0.25                0.625                0.125 7.60838874541703e-17  1.3800199589846e-15 5.61074624261249e-18
40 1 Cu                0.375                  0.5                0.125 -6.23416249179165e-19 -2.19859259921115e-16 8.32667268468867e-17
41 1 Cu                  0.5                  0.5                    0 -4.55935812650361e-16 -4.73138204776149e-16 -6.80011602582908e-16
42 1 Cu                0.625                0.625                    0 1.09440722543402e-15 1.06673720014607e-15 -1.19072503593221e-16
43 1 Cu                  0.5                0.625                0.125 -4.32616148579503e-16 1.16484648532769e-15 -3.87907208524579e-17
44 1 Cu                0.625                  0.5                0.125 1.25771178953286e-15 -4.56920064935071e-16 -3.87907208524579e-17
45 1 Cu                 0.75                  0.5                    0 -1.22124532708767e-15 -6.41617293149765e-16 -4.44089209850063e-16
46 1 Cu                0.875                0.625                    0 1.02695629777827e-15 1.14215277860485e-15 -2.10443641679436e-16
47 1 Cu                 0.75                0.625                0.125 -1.29063426612674e-15 1.26019698420011e-15 -1.5368565794982e-17
48 1 Cu                0.875                  0.5                0.125 1.11022302462516e-15 -4.79325780455842e-16 -4.85722573273506e-17
49 1 Cu                    0                 0.75                    0 -3.05311331771918e-16 -1.33226762955019e-15 -3.59087759527199e-16
50 1 Cu                0.125                0.875                    0 -8.32667268468867e-17 1.26634813746307e-15 -5.63785129692462e-16
51 1 Cu                    0                0.875                0.125 -5.41233724504764e-16 1.23338839141951e-15 -4.68375338513738e-17
52 1 Cu                0.125                 0.75                0.125 -6.93889390390723e-17 -1.39298295120938e-15 -9.44340092234874e-17
53 1 Cu                 0.25                 0.75                    0 4.28259858131774e-17 -1.31699477847825e-15 -6.16861908233311e-16
54 1 Cu                0.375                0.875                    0 1.96257533878821e-18 1.27675647831893e-15 -6.40112962635442e-16
55 1 Cu                 0.25                0.875                0.125 1.12567290558307e-16 1.27812867169348e-15 1.66560558748086e-17
56 1 Cu                0.375                 0.75                0.125 -2.2310022795993e-17 -1.45716771982052e-15 -5.20417042793042e-17
57 1 Cu                  0.5                 0.75                    0 -6.54764091524099e-16 -1.16573417585641e-15 -4.47558656802016e-16
58 1 Cu                0.625                0.875                    0 1.14734339650563e-15 1.00062119641519e-15 -1.83419902530235e-16
59 1 Cu                  0.5                0.875                0.125 -4.99181926805377e-16 1.09634523681734e-15 -6.93889390390723e-18
60 1 Cu                0.625                 0.75                0.125 1.11874756420632e-15  -1.233669606358e-15 1.67204303787999e-17
61 1 Cu                 0.75                 0.75                    0 -1.1518563880486e-15 -1.12236608895699e-15 -1.66668978965334e-16
62 1 Cu                0.875                0.875                    0  1.0547118733939e-15 1.09287578986539e-15 -1.45716771982052e-16
63 1 Cu                 0.75                0.875                0.125 -1.29063426612674e-15  1.0547118733939e-15 -1.49077798716757e-18
64 1 Cu                0.875                 0.75                0.125 1.09634523681734e-15 -1.2490009027033e-15 1.58293517182884e-17
65 1 Cu                    0                    0                 0.25 -7.35522753814166e-16 -7.45931094670027e-16 3.46402594109119e-17
66 1 Cu                0.125                0.125                 0.25                    0 3.03576608295941e-17 8.61940727125976e-17
67 1 Cu                    0                0.125                0.375 -9.71445146547012e-16 2.08166817117217e-17 -4.57533316788883e-17
68 1 Cu                0.125                    0                0.375                    0 -1.0096090630185e-15 1.85805147309703e-17
69 1 Cu                 0.25                    0                 0.25 1.04815245025036e-16 -1.01308867436582e-15 5.44472778495064e-17
70 1 Cu                0.375                0.125                 0.25 -5.71086553697794e-17 6.93889390390723e-17 1.05384451165591e-16
71 1 Cu                 0.25                0.125                0.375 7.93635990259389e-17 9.85099317656751e-17 -5.24567504234588e-17
72 1 Cu                0.375                    0                0.375 -8.39087778209055e-17 -1.02695629777827e-15 -8.57332867892913e-17
73 1 Cu                  0.5                    0                 0.25 -4.50799404858211e-16 -8.60422844084496e-16 -6.1853733940298e-17
74 1 Cu                0.625                0.125                 0.25 1.32359909436799e-15 -1.24615487200053e-17 6.54070371540298e-17
75 1 Cu                  0.5                0.125                0.375 -2.21732049767494e-16 4.16333634234434e-17 -6.8338618184477e-17
76 1 Cu                0.625                    0                0.375 1.26808286093905e-15 -6.09870498286674e-16 -3.96140368771891e-17
77 1 Cu                 0.75                    0                 0.25 -1.41553435639707e-15 -6.1409211049579e-16 1.61681648971901e-17
78 1 Cu                0.875                0.125                 0.25 1.30451205393456e-15 -9.0205620750794e-17 1.39157348838514e-16
79 1 Cu                 0.75                0.125                0.375 -1.45716771982052e-15 -3.90312782094782e-17 1.84314369322536e-17
80 1 Cu                0.875                    0                0.375 1.19348975147204e-15 -5.96744875736022e-16 -3.79199709826805e-17
81 1 Cu                    0                 0.25                 0.25 -9.71445146547012e-16 7.01478805598121e-17 8.54351311918577e-17
82 1 Cu                0.125                0.375                 0.25 8.32667268468867e-17 -6.98565012259567e-17 1.22785896033983e-16
83 1 Cu                    0                0.375                0.375 -1.0547118733939e-15 -9.76730632137879e-17 -7.97024122048406e-17
84 1 Cu                0.125                 0.25                0.375 5.55111512312578e-17 9.30516514535684e-17 -1.30808992110376e-16
85 1 Cu                 0.25                 0.25                 0.25 4.85722573273506e-17 6.13726192262576e-17 2.41912609735828e-18
86 1 Cu                0.375                0.375                 0.25 -1.15905447403437e-16 -8.9126500775992e-17 1.09450209312412e-16
87 1 Cu                 0.25                0.375                0.375 5.24753851482984e-17 -1.14030116458216e-16 8.97854924089558e-20
88 1 Cu                0.375                 0.25                0.375 -9.51243410754997e-17 7.68699340292223e-17  -3.280219791537e-17
89 1 Cu                  0.5                 0.25                 0.25 -1.80093604146368e-16 1.59919820441612e-18  9.9068973510863e-18
90 1 Cu                0.625                0.375                 0.25 1.32611478222133e-15 -1.96714931670339e-17 6.62244239481302e-17
91 1 Cu                  0.5                0.375                0.375 -2.99590471246163e-16 2.28597251804991e-17 6.08940456110589e-17
92 1 Cu                0.625                 0.25                0.375 1.37663860345916e-15 7.16115534926676e-17 -2.80672837402185e-17
93 1 Cu                 0.75                 0.25                 0.25 -1.41553435639707e-15 3.53128035710318e-17 7.84318627839592e-17
94 1 Cu                0.875                0.375                 0.25 1.27675647831893e-15 -4.03052157621486e-17 8.28330459778925e-17
95 1 Cu                 0.75                0.375                0.375 -1.38777878078145e-15 -3.08726568615247e-17 3.75133951679985e-17
96 1 Cu                0.875                 0.25                0.375 1.27675647831893e-15 1.53008031592017e-16 -1.19262238973405e-17
97 1 Cu                    0                  0.5                 0.25 -7.91033905045424e-16 -4.03892414305163e-16 -8.88503680351871e-17
98 1 Cu                0.125                0.625                 0.25 -8.32667268468867e-17 1.36777525069909e-15  1.3200161450011e-17
99 1 Cu                    0                0.625                0.375 -5.82867087928207e-16 1.32717187933951e-15   1.851275209519e-17
100 1 Cu                0.125                  0.5                0.375 1.38777878078145e-17 -2.30555591979043e-16 -2.38660003218372e-17
101 1 Cu                 0.25                  0.5                 0.25 1.18476192398353e-16 -2.49429180109763e-16 -1.47383732822248e-18
102 1 Cu                0.375                0.625                 0.25 -5.75516536011934e-18 1.28101112481299e-15 4.70001641772466e-17
103 1 Cu                 0.25                0.625                0.375 8.38088279331295e-17 1.30384120384033e-15 8.01208464807843e-18
104 1 Cu                0.375                  0.5                0.375 1.75471345353201e-17 -2.0100261244934e-16 3.74710435206357e-17
105 1 Cu                  0.5                  0.5                 0.25 -2.78940231508576e-16 -2.47711397292731e-16 5.57279916657549e-17
106 1 Cu                0.625                0.625                 0.25 1.14839879955791e-15 1.09465794718641e-15 1.90819582357449e-17
107 1 Cu                  0.5                0.625                0.375 -4.33495368778753e-16 1.12758381191208e-15 6.46320020072921e-17
108 1 Cu                0.625                  0.5                0.375 1.17355398402547e-15 -3.79788397725147e-16 -6.7762635780344e-20
109 1 Cu                 0.75                  0.5                 0.25 -1.33226762955019e-15 -4.18637563850965e-16 -1.60529684163635e-17
110 1 Cu                0.875                0.625                 0.25 1.12410081243297e-15 1.13258469443267e-15 -3.98444298388423e-18
111 1 Cu                 0.75                0.625                0.375 -1.26287869051112e-15 1.15120332564627e-15 5.74085050331075e-17
112 1 Cu                0.875                  0.5                0.375 1.13797860024079e-15 -4.56042538801715e-16 -1.01372903127395e-17
113 1 Cu                    0                 0.75                 0.25 -5.68989300120393e-16 -1.40859546249317e-15 -5.05780313464488e-17
114 1 Cu                0.125                0.875                 0.25 -8.32667268468867e-17 1.29063426612674e-15 9.66295186227706e-17
115 1 Cu                    0                0.875                0.375 -5.82867087928207e-16 1.24726617922732e-15 -6.28566209498471e-17
116 1 Cu                0.125                 0.75                0.375 -2.77555756156289e-17 -1.45283091113058e-15 -3.1123378613912e-17
117 1 Cu                 0.25                 0.75                 0.25 7.77101907128985e-17 -1.37249491828119e-15 8.54249667964907e-17
118 1 Cu                0.375                0.875                 0.25 -6.22255814041427e-17 1.27675647831893e-15 2.98020072161953e-17
119 1 Cu                 0.25                0.875                0.375 1.05438661274215e-16 1.26356986939608e-15 -6.58864578021758e-17
120 1 Cu                0.375                 0.75                0.375 -4.31487053660813e-17 -1.41553435639707e-15 1.93530087788663e-17
121 1 Cu                  0.5                 0.75                 0.25 -4.32603856718251e-16 -1.29063426612674e-15 1.52008532714257e-17
122 1 Cu                0.625                0.875                 0.25 1.21428779845893e-15 1.13940330965807e-15 3.41599917298187e-17
123 1 Cu                  0.5                0.875                0.375 -4.50796863759369e-16  1.1518563880486e-15 -4.17417836406919e-18
124 1 Cu                0.625                 0.75                0.375 1.18815005577255e-15 -1.22049316183051e-15  1.3403449357352e-17
125 1 Cu                 0.75                 0.75                 0.25 -1.26287869051112e-15 -1.24726617922732e-15 5.24482800939863e-17
126 1 Cu                0.875                0.875                 0.25 1.12410081243297e-15 1.08767161943746e-15 4.36933475511658e-17
127 1 Cu                 0.75                0.875                0.375 -1.2490009027033e-15 1.11022302462516e-15 -6.80878964320897e-17
128 1 Cu                0.875                 0.75                0.375 1.12410081243297e-15 -1.27675647831893e-15 4.71898995574316e-17
129 1 Cu                    0                    0                  0.5 -5.96744875736022e-16 -6.17561557447743e-16 -5.57930437961041e-16
130 1 Cu                0.125                0.125                  0.5 -2.77555756156289e-17 -9.54097911787244e-18 -1.60312843729138e-16
131 1 Cu                    0                0.125                0.625 -5.82867087928207e-16 -5.55111512312578e-17 1.27990066461914e-15
132 1 Cu                0.125                    0                0.625 -6.93889390390723e-17 -5.44703171456717e-16 1.31646538288621e-15
133 1 Cu                 0.25                    0                  0.5 6.03900610074426e-17 -8.18803033188209e-16 -4.21332822689129e-16
134 1 Cu                0.375                0.125                  0.5 -5.34490495211672e-17 1.38777878078145e-17 -1.30402416295694e-16
135 1 Cu                 0.25                0.125                0.625 3.36915825099871e-17 -6.79938757749445e-17 1.37552390810057e-15
136 1 Cu                0.375                    0                0.625 1.32293840866913e-17 -5.68989300120393e-16  1.2550182247606e-15
137 1 Cu                  0.5                    0                  0.5 -4.5062999826876e-16 -6.52256026967279e-16 -3.94866431219221e-16
138 1 Cu                0.625                0.125                  0.5 1.19951046166113e-15 2.84264257098543e-18 -3.8714826700384e-16
139 1 Cu                  0.5                0.125                0.625 -4.37750862305759e-16 -8.32667268468867e-17 1.18459929365766e-15
140 1 Cu                0.625                    0                0.625  1.0624232613457e-15 -9.63821850021723e-17 1.05800174936103e-15
141 1 Cu                 0.75                    0                  0.5 -1.2490009027033e-15 -4.92661467177413e-16 -6.12018573840911e-16
142 1 Cu                0.875                0.125                  0.5 1.13797860024079e-15 -3.46944695195361e-17 -4.10641572828885e-16
143 1 Cu                 0.75                0.125                0.625 -1.20736753927986e-15 -1.38777878078145e-17 1.14011312326787e-15
144 1 Cu                0.875                    0                0.625 1.11022302462516e-15 -1.94289029309402e-16  1.0772632785816e-15
145 1 Cu                    0                 0.25                  0.5 -8.32667268468867e-16 4.66206934168767e-17 -4.3303034769071e-16
146 1 Cu                0.125                0.375                  0.5 1.38777878078145e-17 -3.87365107438337e-17 -1.84070423833727e-16
147 1 Cu                    0                0.375                0.625 -5.68989300120393e-16 -5.82758667710959e-18 1.21425222307514e-15
148 1 Cu                0.125                 0.25                0.625 -4.16333634234434e-17 -1.51517253604849e-17 1.40759257548362e-15
149 1 Cu                 0.25                 0.25                  0.5 6.91992036588873e-17 9.92925902089381e-17 -3.06241373948003e-16
150 1 Cu                0.375                0.375                  0.5 -6.47844679377979e-17 -6.29802877601462e-17 -1.93577521633709e-16
151 1 Cu                 0.25                0.375                0.625 9.95568644884814e-17 2.01615017270205e-17 1.25158943539011e-15
152 1 Cu                0.375                 0.25                0.625   1.228578938345e-17 8.91485236326206e-17 1.25158943539011e-15
153 1 Cu                  0.5                 0.25                  0.5 -2.94390535982968e-16 7.50810004446212e-17 -2.57670810686547e-16
154 1 Cu                0.625                0.375                  0.5  1.1708299260671e-15 -3.3491682734435e-17 -4.13804393853932e-16
155 1 Cu                  0.5                0.375                0.625 -4.71566958658992e-16 -1.10675442470615e-16  1.1976995052199e-15
156 1 Cu                0.625                 0.25                0.625 1.17177521483623e-15 5.60803573718127e-17 1.13739584157307e-15
157 1 Cu                 0.75                 0.25                  0.5 -1.29063426612674e-15 3.85772685497499e-17 -4.55866355948686e-16
158 1 Cu                0.875                0.375                  0.5  1.1518563880486e-15 -6.20976794291073e-17 -4.00124811755775e-16
159 1 Cu                 0.75                0.375                0.625 -1.23512311489549e-15 -3.27700106633744e-17  1.0598618337132e-15
160 1 Cu                0.875                 0.25                0.625 1.08246744900953e-15 2.48282297499181e-17 1.02439487014577e-15
161 1 Cu                    0                  0.5                  0.5 -6.80011602582908e-16 -4.74067399919287e-16 -4.2782617726278e-16
162 1 Cu                0.125                0.625                  0.5 -2.77555756156289e-17 1.15172086277704e-15 -3.81910215258019e-16
163 1 Cu                    0                0.625                0.625 -1.2490009027033e-16 1.06582494566188e-15  1.0920084281274e-15
164 1 Cu                0.125                  0.5                0.625 -5.55111512312578e-17 -4.30062344243531e-16 1.08490690389762e-15
165 1 Cu                 0.25                  0.5                  0.5 -8.26975207063319e-17 -3.00205417165869e-16 -2.28026351598541e-16
166 1 Cu                0.375                0.625                  0.5 -1.18635434592437e-17 1.12491735219412e-15 -4.36276177944589e-16
167 1 Cu                 0.25                0.625                0.625 8.74273526837999e-17 1.12416857506875e-15 1.18444682772716e-15
168 1 Cu                0.375                  0.5                0.625  -3.531026247219e-17 -4.7166013228319e-16 1.11685868073395e-15
169 1 Cu                  0.5                  0.5                  0.5 -3.64651071924765e-16 -2.96901988671577e-16 -2.72886910551023e-16
170 1 Cu                0.625                0.625                  0.5 9.50413318466688e-16 1.02703888349063e-15 -7.21055431075063e-16
171 1 Cu                  0.5                0.625                0.625 -7.43899062629564e-16 1.00783029382927e-15 9.70442259537463e-16
172 1 Cu                0.625                  0.5                0.625 9.43644678185179e-16 -7.25077990541573e-16 9.62309472694401e-16
173 1 Cu                 0.75                  0.5                  0.5 -1.12410081243297e-15 -4.67033638325287e-16 -4.59457775645045e-16
174 1 Cu                0.875                0.625                  0.5 9.99200722162641e-16 9.43621808295603e-16 -6.49924992296436e-16
175 1 Cu                 0.75                0.625                0.625 -1.01307850997046e-15  9.8798092374331e-16 9.39047830380429e-16
176 1 Cu                0.875                  0.5                0.625 9.29811783123569e-16 -6.53638384737198e-16 8.46490846168058e-16
177 1 Cu                    0                 0.75                  0.5 -4.02455846426619e-16 -1.21430643318376e-15 -6.06827955940137e-16
178 1 Cu                0.125                0.875                  0.5 -5.55111512312578e-17 1.15532583500055e-15 -4.22852399796503e-16
179 1 Cu                    0                0.875                0.625 -1.52655665885959e-16 1.00787433954252e-15 1.03728332347119e-15
180 1 Cu                0.125                 0.75                0.625 -1.38777878078145e-17 -1.21517379492175e-15 1.14540538512231e-15
181 1 Cu                 0.25                 0.75                  0.5 1.18313562072481e-16 -1.3016931282861e-15 -4.37495905388635e-16
182 1 Cu                0.375                0.875                  0.5 -6.40297615817943e-17 1.16573417585641e-15 -3.71664504728031e-16
183 1 Cu                 0.25                0.875                0.625 8.05291163613608e-17 1.11090742724654e-15 1.10943020178653e-15
184 1 Cu                0.375                 0.75                0.625 -6.42898006966014e-19 -1.23512311489549e-15 1.12735850114811e-15
185 1 Cu                  0.5                 0.75                  0.5 -4.49859198286759e-16 -1.08246744900953e-15 -4.49835481364236e-16
186 1 Cu                0.625                0.875                  0.5 1.06313815715318e-15 9.46549154161314e-16 -6.38005544662673e-16
187 1 Cu                  0.5                0.875                0.625 -7.16173133167089e-16 9.57567358739198e-16 9.10133513692957e-16
188 1 Cu                0.625                 0.75                0.625 9.58204327515533e-16 -9.84560604702298e-16 9.35566524967214e-16
189 1 Cu                 0.75                 0.75                  0.5 -1.02695629777827e-15 -1.01221114823247e-15 -6.67882090778227e-16
190 1 Cu                0.875                0.875                  0.5 8.88178419700125e-16 9.87057657830803e-16 -5.97124346496392e-16
191 1 Cu                 0.75                0.875                0.625 -9.99200722162641e-16 8.22258927613007e-16 8.42350549121879e-16
192 1 Cu                0.875                 0.75                0.625 8.32667268468867e-16 -9.64506252643105e-16  9.0726037793587e-16
193 1 Cu                    0                    0                 0.75 -3.19189119579733e-16 -3.50414142147315e-16 -1.33400235302616e-15
194 1 Cu                0.125                0.125                 0.75 -8.32667268468867e-17 -8.41340885848751e-17  -1.339111655764e-15
195 1 Cu                    0                0.125                0.875 -6.24500451351651e-16 -9.0205620750794e-17  1.2342557531575e-15
196 1 Cu                0.125                    0                0.875 -1.11022302462516e-16 -6.45317133063372e-16 1.22471477403963e-15
197 1 Cu                 0.25                    0                 0.75 1.34928960365821e-16 -6.52269579494436e-16 -1.37802773749265e-15
198 1 Cu                0.375                0.125                 0.75 -6.56599580555767e-17 -9.71445146547012e-17 -1.41119754770713e-15
199 1 Cu                 0.25                0.125                0.875 8.66006485272797e-17 -2.63605123515011e-17 1.32047693092441e-15
200 1 Cu                0.375                    0                0.875 -1.58268106194466e-18 -5.82867087928207e-16 1.30798150088651e-15
201 1 Cu                  0.5                    0                 0.75 -6.89313718409655e-16 -3.88578058618805e-16 -1.19348975147204e-15
202 1 Cu                0.625                0.125                 0.75 1.15768397472571e-15 -5.40932180775541e-17 -1.14706218156714e-15
203 1 Cu                  0.5                0.125                0.875 -4.80857265189235e-16 -5.55111512312578e-17 1.14144804719274e-15
204 1 Cu                0.625                    0                0.875 1.14043160765603e-15 -1.10978256749258e-16 1.00105403025123e-15
205 1 Cu                 0.75                    0                 0.75 -1.11022302462516e-15 -1.45716771982052e-16 -1.11773112466962e-15
206 1 Cu                0.875                0.125                 0.75 1.12410081243297e-15 -8.32667268468867e-17 -1.14030963491163e-15
207 1 Cu                 0.75                0.125                0.875 -1.20736753927986e-15 -5.3776427755281e-17 9.85133198974641e-16
208 1 Cu                0.875                    0                0.875 1.06858966120171e-15 -7.97972798949331e-17 1.11716191852906e-15
209 1 Cu                    0                 0.25                 0.75 -6.38378239159465e-16 1.21051172558007e-16 -1.32250980999782e-15
210 1 Cu                0.125                0.375                 0.75 -6.93889390390723e-17 -1.28562660734258e-17 -1.36696209906972e-15
211 1 Cu                    0                0.375                0.875 -5.82867087928207e-16 3.57312378469754e-17 1.25940924355916e-15
212 1 Cu                0.125                 0.25                0.875 -6.93889390390723e-17 1.29806105100827e-16 1.33505945014434e-15
213 1 Cu                 0.25                 0.25                 0.75 1.23680362826284e-16 1.33234894471312e-16 -1.42303059798028e-15
214 1 Cu                0.375                0.375                 0.75 -2.14883788388943e-17 6.43914446502719e-18 -1.41553435639707e-15
215 1 Cu                 0.25                0.375                0.875 1.36988944493543e-16 -7.69487080933169e-17 1.32120199112726e-15
216 1 Cu                0.375                 0.25                0.875 -6.39348938917018e-17 1.19560394570839e-16 1.30732420331944e-15
217 1 Cu                  0.5                 0.25                 0.75 -4.43687746274098e-16 2.29850860566927e-17 -1.31555228136907e-15
218 1 Cu                0.625                0.375                 0.75 1.12979287383852e-15 -5.70154817455815e-17  -1.205165253617e-15