ITEM: TIMESTEP
0
ITEM: NUMBER OF ATOMS
256
ITEM: BOX BOUNDS pp pp pp
0.0000000000000000e+00 1.4460000000000001e+01
0.0000000000000000e+00 1.4460000000000001e+01
0.0000000000000000e+00 1.4460000000000001e+01
ITEM: ATOMS id type element xsu ysu zsu fx fy fz
1 1 Cu                    0                    0                    0 -5.82867087928207e-16 -6.34908792207511e-16 -5.99346960949987e-16
2 1 Cu                0.125                0.125                    0 4.40619762898109e-16 4.08527378592538e-16 -5.85469173142172e-16
3 1 Cu                    0                0.125                0.125 -6.80011602582908e-16 3.27862736959617e-16 3.34801630863524e-16
4 1 Cu                0.125                    0                0.125 3.78169717762944e-16 -6.80878964320897e-16 3.07046055247895e-16
5 1 Cu                 0.25                    0                    0 -2.34187669256869e-16 -7.36390115552155e-16 -6.76596365739579e-16
6 1 Cu                0.375                0.125                    0 1.79110198894605e-16 4.09394740330526e-16 -6.80011602582908e-16
7 1 Cu                 0.25                0.125                0.125 -2.09901540593194e-16 2.24755110356245e-16 1.18015406475047e-16
8 1 Cu                0.375                    0                0.125 2.68014777038417e-16 -7.21644966006352e-16 3.52148865623292e-16
9 1 Cu                  0.5                    0                    0 -6.61444640379094e-16 -6.45317133063372e-16 -5.51642065360625e-16
10 1 Cu                0.625                0.125                    0 8.43075609324728e-16 4.42896587460329e-16 -6.08887940067859e-16
11 1 Cu                  0.5                0.125                0.125 -4.46908135498525e-16  2.0122792321331e-16 1.97758476261356e-16
12 1 Cu                0.625                    0                0.125 7.97539118080337e-16 -5.77662917500277e-16   4.562322741819e-16
13 1 Cu                 0.75                    0                    0 -7.63278329429795e-16 -4.60569082871842e-16 -4.62303806347819e-16
14 1 Cu                0.875                0.125                    0 5.62050406216485e-16 4.16333634234434e-16 -5.77662917500277e-16
15 1 Cu                 0.75                0.125                0.125 -6.24500451351651e-16 4.19369400317393e-16 5.03069808033274e-16
16 1 Cu                0.875                    0                0.125 5.20417042793042e-16 -5.49907341884648e-16 4.85722573273506e-16
17 1 Cu                    0                 0.25                    0 -6.73072708679001e-16 -2.53269627492614e-16 -7.14706072102445e-16
18 1 Cu                0.125                0.375                    0 4.16333634234434e-16 1.51517253604849e-16 -6.41847686111419e-16
19 1 Cu                    0                0.375                0.125 -6.66133814775094e-16 1.97758476261356e-16 3.71230823859037e-16
20 1 Cu                0.125                 0.25                0.125 3.05311331771918e-16 -1.81278603239576e-16 1.71737624121704e-16
21 1 Cu                 0.25                 0.25                    0 -2.1163626406917e-16 -2.4307812707125e-16 -7.52761568356686e-16
22 1 Cu                0.375                0.375                    0 2.12340995481286e-16 1.98964651178246e-16 -7.7715611723761e-16
23 1 Cu                 0.25                0.375                0.125 -1.57859836313889e-16  1.9615927805694e-16 2.56847494661816e-16
24 1 Cu                0.375                 0.25                0.125 1.57453260499207e-16 -1.56125112837913e-16 2.29091919046187e-16
25 1 Cu                  0.5                 0.25                    0 -5.1290894274858e-16 -2.15105711021124e-16 -7.14706072102445e-16
26 1 Cu                0.625                0.375                    0 8.34401991944844e-16 1.89084858881472e-16 -5.98804859863744e-16
27 1 Cu                  0.5                0.375                0.125 -3.76760254938713e-16 3.05311331771918e-16 3.81639164714898e-16
28 1 Cu                0.625                 0.25                0.125 8.52182907573606e-16 -2.20309881449055e-16 5.28765399521181e-16
29 1 Cu                 0.75                 0.25                    0 -8.04911692853238e-16 -3.08292887746253e-16 -6.45317133063372e-16
30 1 Cu                0.875                0.375                    0 6.17561557447743e-16  2.2811613709095e-16 -4.47558656802016e-16
31 1 Cu                 0.75                0.375                0.125 -7.42461647718073e-16  3.3133218391157e-16 5.93275428784068e-16
32 1 Cu                0.875                 0.25                0.125 7.42461647718073e-16 -2.73652628335341e-16 5.46437894932694e-16
33 1 Cu                    0                  0.5                    0 -6.10622663543836e-16 -6.01949046163952e-16 -6.1409211049579e-16
34 1 Cu                0.125                0.625                    0 5.34294830600857e-16 8.83841611010183e-16 -6.46618175670355e-16
35 1 Cu                    0                0.625                0.125 -6.17561557447743e-16 8.34401991944844e-16  4.5102810375397e-16
36 1 Cu                0.125                  0.5                0.125 3.19189119579733e-16 -4.49293380277993e-16 2.72351585728359e-16
37 1 Cu                 0.25                  0.5                    0 -2.1163626406917e-16 -4.51000998699658e-16 -7.6219412725731e-16
38 1 Cu                0.375                0.625                    0 1.53577237732572e-16  8.2876414064792e-16 -6.07803737895374e-16
39 1 Cu                 0.25                0.625                0.125 -1.74339709335669e-16 9.11814027060309e-16 4.83662589145784e-16
40 1 Cu                0.375                  0.5                0.125 3.21533706777732e-16 -4.35822168284861e-16 3.78169717762944e-16
41 1 Cu                  0.5                  0.5                    0 -4.92078708509702e-16 -4.51272049242779e-16 -6.31439345255558e-16
42 1 Cu                0.625                0.625                    0 5.72458747072346e-16 5.99672221601733e-16 -3.06612374378901e-16
43 1 Cu                  0.5                0.625                0.125 -3.36658327083905e-16 6.45100292628875e-16 4.15032591627451e-16
44 1 Cu                0.625                  0.5                0.125 6.29704621779581e-16 -3.95571162631336e-16 4.39318720291126e-16
45 1 Cu                 0.75                  0.5                    0 -6.31439345255558e-16 -5.18682319317065e-16 -5.7072402359637e-16
46 1 Cu                0.875                0.625                    0 4.85722573273506e-16 6.56592835657221e-16 -3.40005801291454e-16
47 1 Cu                 0.75                0.625                0.125 -4.92661467177413e-16 5.51533645143376e-16 3.98986399474666e-16
48 1 Cu                0.875                  0.5                0.125 5.89805981832114e-16 -3.57353036051222e-16 4.14598910758457e-16
49 1 Cu                    0                 0.75                    0 -4.78783679369599e-16 -6.76542155630955e-16 -4.39752401160121e-16
50 1 Cu                0.125                0.875                    0 5.20417042793042e-16 5.23886489744996e-16 -5.50774703622636e-16
51 1 Cu                    0                0.875                0.125 -5.06539254985228e-16 6.50521303491303e-16 5.04804531509251e-16
52 1 Cu                0.125                 0.75                0.125 5.58580959264532e-16 -5.90673343570103e-16 4.71844785465692e-16
53 1 Cu                 0.25                 0.75                    0 -2.1163626406917e-16 -7.06195085048433e-16 -5.48809587185006e-16
54 1 Cu                0.375                0.875                    0 1.01860794105013e-16 6.03683769639929e-16 -3.95516952522712e-16
55 1 Cu                 0.25                0.875                0.125 -2.15105711021124e-16 7.16874476447416e-16 4.95805653477621e-16
56 1 Cu                0.375                 0.75                0.125 2.50894552829201e-16 -6.45317133063372e-16 4.68375338513738e-16
57 1 Cu                  0.5                 0.75                    0 -5.90551370825698e-16 -6.17561557447743e-16 -5.30825383648903e-16
58 1 Cu                0.625                0.875                    0 6.17995238316738e-16 5.37059546140695e-16 -3.0964814046186e-16
59 1 Cu                  0.5                0.875                0.125 -4.36282954208167e-16 6.52256026967279e-16 3.41740524767431e-16
60 1 Cu                0.625                 0.75                0.125 5.29958021910915e-16 -4.73796349376165e-16 3.81205483845903e-16
61 1 Cu                 0.75                 0.75                    0 -6.45317133063372e-16 -5.79397640976254e-16  -3.963843142607e-16
62 1 Cu                0.875                0.875                    0 4.92661467177413e-16  5.3776427755281e-16 -3.79904441238921e-16
63 1 Cu                 0.75                0.875                0.125 -5.27355936696949e-16 4.52762827229947e-16 3.36536354339501e-16
64 1 Cu                0.875                 0.75                0.125 4.37150315946155e-16 -5.03069808033274e-16 3.66026653431106e-16
65 1 Cu                    0                    0                 0.25 -7.0082828429463e-16 -7.52869988573934e-16 -1.92554305833426e-16
66 1 Cu                0.125                0.125                 0.25 2.63677968348475e-16  2.3115190317391e-16 -2.13370987545147e-16
67 1 Cu                    0                0.125                0.375 -7.35522753814166e-16 3.66026653431106e-16 1.61329283265843e-16
68 1 Cu                0.125                    0                0.375 3.98986399474666e-16  -6.956241138667e-16 1.91578523878189e-16
69 1 Cu                 0.25                    0                 0.25 -1.45716771982052e-16 -8.3320936955511e-16 -2.21177243187043e-16
70 1 Cu                0.375                0.125                 0.25 2.21665134164661e-16 1.87350135405495e-16 -1.40512601554121e-16
71 1 Cu                 0.25                0.125                0.375 -1.89084858881472e-16 2.78097857242532e-16 2.37358960611389e-16
72 1 Cu                0.375                    0                0.375 1.89748932712119e-16 -7.70217223333702e-16 1.51354623278976e-16
73 1 Cu                  0.5                    0                 0.25 -5.58065963232601e-16 -7.14706072102445e-16 -2.02962646689286e-16
74 1 Cu                0.625                0.125                 0.25 8.41340885848751e-16 4.25874613352306e-16 -2.41600901611239e-16
75 1 Cu                  0.5                0.125                0.375 -4.52667959539854e-16 3.78169717762944e-16 2.58365377703296e-16
76 1 Cu                0.625                    0                0.375 7.69349861595714e-16 -5.57930437961041e-16 1.07227594858816e-16
77 1 Cu                 0.75                    0                 0.25 -7.49400541621981e-16 -5.95010152260045e-16 -2.34621350125863e-16
78 1 Cu                0.875                0.125                 0.25 7.70217223333702e-16 4.40619762898109e-16 -1.92554305833426e-16
79 1 Cu                 0.75                0.125                0.375 -6.93889390390723e-16 4.33680868994202e-16 2.74086309204336e-16
80 1 Cu                0.875                    0                0.375 6.38378239159465e-16 -4.78783679369599e-16 5.03069808033274e-17
81 1 Cu                    0                 0.25                 0.25 -8.50014503228635e-16 -1.4658413372004e-16 -1.43114686768087e-16
82 1 Cu                0.125                0.375                 0.25 2.98372437868011e-16 2.01986864734049e-16 -1.43982048506075e-16
83 1 Cu                    0                0.375                0.375 -7.28583859910259e-16 2.55004350968591e-16 1.61762964134837e-16
84 1 Cu                0.125                 0.25                0.375 3.12250225675825e-16 -2.26381413614973e-16  1.7650811368064e-16
85 1 Cu                 0.25                 0.25                 0.25 -1.70870262383715e-16 -1.47776756109774e-16 -1.25008510487579e-16
86 1 Cu                0.375                0.375                 0.25 1.93570745370131e-16 1.43507710055613e-16 -1.87350135405495e-16
87 1 Cu                 0.25                0.375                0.375 -1.82145964977565e-16  1.3744973041685e-16 1.27908751298977e-16
88 1 Cu                0.375                 0.25                0.375 1.77782051233311e-16 -1.76941794549634e-16 1.53062241700641e-16
89 1 Cu                  0.5                 0.25                 0.25 -4.78078947957483e-16 -1.54390389361936e-16 -1.57859836313889e-16
90 1 Cu                0.625                0.375                 0.25 8.21825246744012e-16  3.5681093496498e-16 -2.25839312528731e-16
91 1 Cu                  0.5                0.375                0.375  -2.963395587946e-16 2.84752148076162e-16 1.60624551853727e-16
92 1 Cu                0.625                 0.25                0.375 8.20957885006024e-16 -2.0122792321331e-16  2.7972416050126e-16
93 1 Cu                 0.75                 0.25                 0.25 -7.7715611723761e-16 -1.99222149194211e-16 -2.34187669256869e-16
94 1 Cu                0.875                0.375                 0.25 7.42461647718073e-16 3.50414142147315e-16 -2.13370987545147e-16
95 1 Cu                 0.75                0.375                0.375 -6.80011602582908e-16 3.33934269125535e-16 1.80411241501588e-16
96 1 Cu                0.875                 0.25                0.375 7.14706072102445e-16 -2.20743562318049e-16 2.72351585728359e-16
97 1 Cu                    0                  0.5                 0.25 -7.66747776381749e-16 -4.92661467177413e-16 -1.30104260698261e-16
98 1 Cu                0.125                0.625                 0.25 5.62050406216485e-16 8.23993651088983e-16 -1.28369537222284e-16
99 1 Cu                    0                0.625                0.375 -6.66133814775094e-16 7.84095011141517e-16 1.96023752785379e-16
100 1 Cu                0.125                  0.5                0.375 3.46944695195361e-16 -3.86409654273834e-16  2.8796409701215e-16
101 1 Cu                 0.25                  0.5                 0.25 -1.96023752785379e-16 -4.0424478001122e-16 -9.47592698752331e-17
102 1 Cu                0.375                0.625                 0.25 3.02668588976485e-16  8.5399894621252e-16 -1.6826817716975e-16
103 1 Cu                 0.25                0.625                0.375 -2.08166817117217e-16 8.83841611010183e-16 2.26489833832222e-16
104 1 Cu                0.375                  0.5                0.375 2.91840119778786e-16 -2.15485181781494e-16  2.5879905857229e-16
105 1 Cu                  0.5                  0.5                 0.25 -3.21913177538102e-16 -3.85813343078967e-16 -1.97758476261356e-16
106 1 Cu                0.625                0.625                 0.25 4.86318884468373e-16 5.14928269294834e-16 -1.09287578986539e-16
107 1 Cu                  0.5                0.625                0.375 -3.15638357464842e-16   5.160802341031e-16 2.05564731903252e-16
108 1 Cu                0.625                  0.5                0.375 5.20850723662036e-16 -3.35885833036009e-16 1.76724954115137e-16
109 1 Cu                 0.75                  0.5                 0.25 -7.0082828429463e-16 -4.66206934168767e-16 -1.97975316695853e-16
110 1 Cu                0.875                0.625                 0.25 3.81639164714898e-16 6.08887940067859e-16 -1.50053580671994e-16
111 1 Cu                 0.75                0.625                0.375 -5.41233724504764e-16 5.77554497283028e-16   1.196959198424e-16
112 1 Cu                0.875                  0.5                0.375 6.10622663543836e-16 -4.59701721133854e-16 2.15105711021124e-16
113 1 Cu                    0                 0.75                 0.25 -6.10622663543836e-16 -7.21644966006352e-16 -1.90819582357449e-16
114 1 Cu                0.125                0.875                 0.25 5.27355936696949e-16 7.74554032023644e-16 -2.05564731903252e-16
115 1 Cu                    0                0.875                0.375 -4.85722573273506e-16 6.24500451351651e-16 1.00613961606655e-16
116 1 Cu                0.125                 0.75                0.375  5.3776427755281e-16 -6.99527241687647e-16 2.10552061896685e-16
117 1 Cu                 0.25                 0.75                 0.25 -2.79290479632266e-16 -7.54387871615414e-16 -2.42210765333262e-16
118 1 Cu                0.375                0.875                 0.25 3.58410133169396e-16 8.22258927613007e-16 -1.77375475418629e-16
119 1 Cu                 0.25                0.875                0.375 -1.96023752785379e-16 7.23596529916826e-16 2.64436909869215e-16
120 1 Cu                0.375                 0.75                0.375 2.84901225874878e-16 -6.38378239159465e-16 2.22044604925031e-16
121 1 Cu                  0.5                 0.75                 0.25 -4.68359326686199e-16 -6.86950496486816e-16 -1.93421667571414e-16
122 1 Cu                0.625                0.875                 0.25 5.01714555317667e-16 4.47016555715773e-16 -1.34712119931324e-16
123 1 Cu                  0.5                0.875                0.375 -5.43862914773041e-16 5.20417042793042e-16 1.66533453693773e-16
124 1 Cu                0.625                 0.75                0.375 5.49907341884648e-16 -5.23127548224256e-16 1.68701858038744e-16
125 1 Cu                 0.75                 0.75                 0.25 -4.78783679369599e-16 -5.74193470548323e-16 -1.38777878078145e-16
126 1 Cu                0.875                0.875                 0.25 4.16333634234434e-16 4.18068357710411e-16 -1.47451495458029e-16
127 1 Cu                 0.75                0.875                0.375 -4.9960036108132e-16 3.88578058618805e-16  1.2490009027033e-16
128 1 Cu                0.875                 0.75                0.375 4.09394740330526e-16 -5.41233724504764e-16 1.45716771982052e-16
129 1 Cu                    0                    0                  0.5 -6.38378239159465e-16 -6.03683769639929e-16 -6.40112962635442e-16
130 1 Cu                0.125                0.125                  0.5 3.40005801291454e-16 2.58473797920544e-16 -5.08273978461204e-16
131 1 Cu                    0                0.125                0.625 -6.38378239159465e-16 4.75314232417645e-16 8.79504802320241e-16
132 1 Cu                0.125                    0                0.625 5.27355936696949e-16 -5.27355936696949e-16  8.6389229103645e-16
133 1 Cu                 0.25                    0                  0.5 -1.21430643318376e-16 -7.08200859067531e-16 -5.04099800097135e-16
134 1 Cu                0.375                0.125                  0.5 2.37358960611389e-16 2.74086309204336e-16 -5.14345510627123e-16
135 1 Cu                 0.25                0.125                0.625 -1.95156391047391e-16 4.45851038380352e-16 9.10729824887824e-16
136 1 Cu                0.375                    0                0.625 1.32584373167821e-16  -5.759281940243e-16 9.15933995315754e-16
137 1 Cu                  0.5                    0                  0.5 -4.44536443246213e-16 -6.24500451351651e-16 -4.49293380277993e-16
138 1 Cu                0.625                0.125                  0.5 6.56809676091719e-16 3.62990887348147e-16 -4.06250554030319e-16
139 1 Cu                  0.5                0.125                0.625 -2.77894569335191e-16  3.7470027081099e-16 6.55725473919233e-16
140 1 Cu                0.625                    0                0.625  6.7090430433403e-16 -2.86879894839664e-16 6.88468379528295e-16
141 1 Cu                 0.75                    0                  0.5 -6.52256026967279e-16 -5.29958021910915e-16 -5.30825383648903e-16
142 1 Cu                0.875                0.125                  0.5 5.62050406216485e-16 3.62557206479153e-16 -3.53883589099269e-16
143 1 Cu                 0.75                0.125                0.625 -5.68989300120393e-16 2.88397777881144e-16 6.15609993537269e-16
144 1 Cu                0.875                    0                0.625 4.61436444609831e-16 -3.36536354339501e-16  6.6266436782314e-16
145 1 Cu                    0                 0.25                  0.5 -7.28583859910259e-16 -2.0122792321331e-16 -4.68375338513738e-16
146 1 Cu                0.125                0.375                  0.5 3.08780778723872e-16 3.56485674313234e-16 -4.33680868994202e-16
147 1 Cu                    0                0.375                0.625 -5.34294830600857e-16  2.3115190317391e-16  8.6909646146438e-16
148 1 Cu                0.125                 0.25                0.625 4.92661467177413e-16 -2.46330733588707e-16 8.76035355368288e-16
149 1 Cu                 0.25                 0.25                  0.5 -2.43728648374741e-16 -2.48715978368175e-16 -3.69712940817557e-16
150 1 Cu                0.375                0.375                  0.5 2.80970992999618e-16 3.60280381916933e-16 -3.61527214415291e-16
151 1 Cu                 0.25                0.375                0.625 -2.10768902331182e-16 3.55062658961847e-16 8.04261171549747e-16
152 1 Cu                0.375                 0.25                0.625 3.31752312253408e-16 -2.10768902331182e-16  8.5413447148408e-16
153 1 Cu                  0.5                 0.25                  0.5 -3.17535711266692e-16 -2.22044604925031e-16 -3.24881180985281e-16
154 1 Cu                0.625                0.375                  0.5 5.11743425413158e-16 3.51715184754298e-16 -3.69821361034806e-16
155 1 Cu                  0.5                0.375                0.625 -3.31630339509004e-16 2.96082060778635e-16 6.09158990610981e-16
156 1 Cu                0.625                 0.25                0.625 5.63432763986405e-16 -2.09901540593194e-16 6.26452015262124e-16
157 1 Cu                 0.75                 0.25                  0.5 -6.38378239159465e-16 -2.48715978368175e-16 -4.44956571588051e-16
158 1 Cu                0.875                0.375                  0.5 5.96744875736022e-16 2.84494650060196e-16 -4.78783679369599e-16
159 1 Cu                 0.75                0.375                0.625 -6.38378239159465e-16 1.52655665885959e-16  6.5442443131225e-16
160 1 Cu                0.875                 0.25                0.625 3.95516952522712e-16 -1.78676518025611e-16 6.67434857382077e-16
161 1 Cu                    0                  0.5                  0.5 -6.24500451351651e-16 -5.22151766269019e-16 -5.58580959264532e-16
162 1 Cu                0.125                0.625                  0.5 4.64905891561784e-16 6.25367813089639e-16 -3.81639164714898e-16
163 1 Cu                    0                0.625                0.625 -3.05311331771918e-16 6.66133814775094e-16  6.7394007041699e-16
164 1 Cu                0.125                  0.5                0.625 4.16333634234434e-16 -3.77302356024956e-16 6.85215773010839e-16
165 1 Cu                 0.25                  0.5                  0.5 -1.76941794549634e-16 -2.74736830507827e-16 -2.99185589497375e-16
166 1 Cu                0.375                0.625                  0.5 3.07208685573768e-16 6.34041430469523e-16 -3.22062255336819e-16
167 1 Cu                 0.25                0.625                0.625 -2.26381413614973e-16 5.63785129692462e-16 5.89047040311375e-16
168 1 Cu                0.375                  0.5                0.625 2.75875242788937e-16 -3.21411734033328e-16 5.65519853168439e-16
169 1 Cu                  0.5                  0.5                  0.5 -2.92951427005583e-16 -2.28441397742696e-16 -2.21827764490534e-16
170 1 Cu                0.625                0.625                  0.5 3.60388802134182e-16 4.72197151171749e-16 -4.64689051127287e-16
171 1 Cu                  0.5                0.625                0.625 -5.22910707789759e-16 5.17462591873019e-16 4.98082478039841e-16
172 1 Cu                0.625                  0.5                0.625 4.39535560725623e-16 -4.90384642615194e-16  4.8336443354835e-16
173 1 Cu                 0.75                  0.5                  0.5 -5.48172618408671e-16 -4.22405166400353e-16 -3.80771802976909e-16
174 1 Cu                0.875                0.625                  0.5 4.57966997657877e-16 5.67254576644416e-16 -5.18682319317065e-16
175 1 Cu                 0.75                0.625                0.625 -5.82867087928207e-16 5.55219932529827e-16 5.72567167289595e-16
176 1 Cu                0.875                  0.5                0.625 4.82253126321552e-16 -4.77048955893622e-16 4.42354486374086e-16
177 1 Cu                    0                 0.75                  0.5  -5.759281940243e-16 -6.31439345255558e-16 -6.5746019739521e-16
178 1 Cu                0.125                0.875                  0.5 4.30211422042248e-16 5.42101086242752e-16 -4.64038529823796e-16
179 1 Cu                    0                0.875                0.625 -3.98986399474666e-16 4.38885039422132e-16 6.78276879106932e-16
180 1 Cu                0.125                 0.75                0.625 3.67761376907083e-16 -5.45570533194706e-16 6.24500451351651e-16
181 1 Cu                 0.25                 0.75                  0.5 -1.97758476261356e-16 -6.19838382009963e-16 -4.80409982628327e-16
182 1 Cu                0.375                0.875                  0.5 2.35380291646603e-16 4.92661467177413e-16 -5.23886489744996e-16
183 1 Cu                 0.25                0.875                0.625 -8.06646416329215e-17 4.17851517275913e-16 5.84276550752438e-16
184 1 Cu                0.375                 0.75                0.625 2.01498973756431e-16 -5.89805981832114e-16  5.9013124248386e-16
185 1 Cu                  0.5                 0.75                  0.5 -4.47667077019265e-16 -5.34294830600857e-16 -3.54750950837257e-16
186 1 Cu                0.625                0.875                  0.5 4.13081027716977e-16 3.60063541482436e-16 -4.91252004353182e-16
187 1 Cu                  0.5                0.875                0.625 -5.16161549266037e-16 4.64905891561784e-16 5.19983361924048e-16
188 1 Cu                0.625                 0.75                0.625 4.94829871522384e-16 -5.36680075380325e-16 4.90167802180697e-16
189 1 Cu                 0.75                 0.75                  0.5 -5.06539254985228e-16 -4.40619762898109e-16 -5.29958021910915e-16
190 1 Cu                0.875                0.875                  0.5  4.5102810375397e-16 3.71230823859037e-16 -4.25007251614318e-16
191 1 Cu                 0.75                0.875                0.625 -5.41233724504764e-16 5.84601811404184e-16 5.28006458000441e-16
192 1 Cu                0.875                 0.75                0.625 5.82867087928207e-16 -5.07406616723216e-16 5.03069808033274e-16
193 1 Cu                    0                    0                 0.75 -4.92661467177413e-16 -4.23272528138341e-16 -7.0603245472256e-16
194 1 Cu                0.125                0.125                 0.75 4.30211422042248e-16 4.61002763740836e-16 -6.13224748757801e-16
195 1 Cu                    0                0.125                0.875 -4.75314232417645e-16 4.57966997657877e-16 5.46437894932694e-16
196 1 Cu                0.125                    0                0.875 5.13478148889135e-16 -4.91360424570431e-16 6.00214322687975e-16
197 1 Cu                 0.25                    0                 0.75 -1.75207071073658e-16 -6.04117450508923e-16 -6.3425827090402e-16
198 1 Cu                0.375                0.125                 0.75 2.52173651740199e-16  4.5102810375397e-16 -6.74807432154978e-16
199 1 Cu                 0.25                0.125                0.875 -2.52402265754625e-16 5.56873340842867e-16 7.54821552484408e-16
200 1 Cu                0.375                    0                0.875  9.9461996798389e-17 -4.9960036108132e-16 6.69603261727048e-16
201 1 Cu                  0.5                    0                 0.75 -6.18876152581882e-16 -5.27355936696949e-16 -7.54604712049911e-16
202 1 Cu                0.625                0.125                 0.75 6.61363325216158e-16 4.22513586617601e-16 -5.34511671035354e-16
203 1 Cu                  0.5                0.125                0.875 -4.38130914575338e-16 3.95516952522712e-16 6.34908792207511e-16
204 1 Cu                0.625                    0                0.875 6.41847686111419e-16 -3.64942451258621e-16 6.05201652681409e-16
205 1 Cu                 0.75                    0                 0.75 -6.24500451351651e-16 -3.51281503885303e-16 -5.72458747072346e-16
206 1 Cu                0.875                0.125                 0.75 3.95516952522712e-16 3.59087759527199e-16 -5.04804531509251e-16
207 1 Cu                 0.75                0.125                0.875 -5.68989300120393e-16 3.92047505570758e-16 3.88578058618805e-16
208 1 Cu                0.875                    0                0.875 5.27355936696949e-16 -3.72965547335014e-16 5.55111512312578e-16
209 1 Cu                    0                 0.25                 0.75  -5.759281940243e-16 -2.15973072759112e-16 -8.15320033709099e-16
210 1 Cu                0.125                0.375                 0.75 4.68375338513738e-16 2.78423117894278e-16 -7.31185945124224e-16
211 1 Cu                    0                0.375                0.875 -4.5102810375397e-16 1.45716771982052e-16  7.0603245472256e-16
212 1 Cu                0.125                 0.25                0.875 4.92661467177413e-16 -3.17454396103756e-16 7.49400541621981e-16
213 1 Cu                 0.25                 0.25                 0.75 -2.67147415300428e-16 -2.92626166353838e-16 -7.24355471437566e-16
214 1 Cu                0.375                0.375                 0.75 3.17617026429629e-16 3.12683906544819e-16  -5.759281940243e-16
215 1 Cu                 0.25                0.375                0.875 -1.76074432811646e-16 2.44270749460984e-16 7.40943764676594e-16
216 1 Cu                0.375                 0.25                0.875 2.47306515543944e-16 -2.76688394418301e-16 7.58290999436362e-16
217 1 Cu                  0.5                 0.25                 0.75 -4.31867810679952e-16 -1.99493199737333e-16 -6.54207590877753e-16
218 1 Cu                0.625                0.375                 0.75 6.22765727875674e-16 1.34549489605451e-16 -4.8463837110102e-16