ITEM: TIMESTEP
1
ITEM: NUMBER OF ATOMS
256
ITEM: BOX BOUNDS pp pp pp
0.0000000000000000e+00 1.4460000000000001e+01
0.0000000000000000e+00 1.4460000000000001e+01
0.0000000000000000e+00 1.4460000000000001e+01
ITEM: ATOMS id type x y z
1 1 -1.76011e-16 -1.77169e-16 -1.79485e-16
2 1 1.8075 1.8075 -3.39284e-16
3 1 -3.61285e-16 1.8075 1.8075
4 1 1.8075 -3.48547e-16 1.8075
5 1 3.615 -2.73284e-16 -2.68648e-16
6 1 5.4225 1.8075 -3.57811e-16
7 1 3.615 1.8075 1.8075
8 1 5.4225 -3.10335e-16 1.8075
9 1 7.23 -1.85274e-16 -2.03802e-16
10 1 9.0375 1.8075 -1.75278e-16
11 1 7.23 1.8075 1.8075
12 1 9.0375 -2.03316e-16 1.8075
13 1 10.845 -1.01901e-16 -1.22165e-16
14 1 12.6525 1.8075 -1.96275e-16
15 1 10.845 1.8075 1.8075
16 1 12.6525 -1.96275e-16 1.8075
17 1 -2.68648e-16 3.615 -2.70964e-16
18 1 1.8075 5.4225 -3.47389e-16
19 1 -3.14966e-16 5.4225 1.8075
20 1 1.8075 3.615 1.8075
21 1 3.615 3.615 -3.32784e-16
22 1 5.4225 5.4225 -3.56653e-16
23 1 3.615 5.4225 1.8075
24 1 5.4225 3.615 1.8075
25 1 7.23 3.615 -3.01071e-16
26 1 9.0375 5.4225 -2.03544e-16
27 1 7.23 5.4225 1.8075
28 1 9.0375 3.615 1.8075
29 1 10.845 3.615 -2.0496e-16
30 1 12.6525 5.4225 -2.11329e-16
31 1 10.845 5.4225 1.8075
32 1 12.6525 3.615 1.8075
33 1 -1.94538e-16 7.23 -2.02644e-16
34 1 1.8075 9.0375 -1.73885e-16
35 1 -1.76011e-16 9.0375 1.8075
36 1 1.8075 7.23 1.8075
37 1 3.615 7.23 -2.8694e-16
38 1 5.4225 9.0375 -1.98195e-16
39 1 3.615 9.0375 1.8075
40 1 5.4225 7.23 1.8075
41 1 7.23 7.23 -2.26961e-16
42 1 9.0375 9.0375 -3.97417e-17
43 1 7.23 9.0375 1.8075
44 1 9.0375 7.23 1.8075
45 1 10.845 7.23 -1.48219e-16
46 1 12.6525 9.0375 -7.02378e-17
47 1 10.845 9.0375 1.8075
48 1 12.6525 7.23 1.8075
49 1 -1.01901e-16 10.845 -1.19849e-16
50 1 1.8075 12.6525 -1.88169e-16
51 1 -1.80643e-16 12.6525 1.8075
52 1 1.8075 10.845 1.8075
53 1 3.615 10.845 -2.05884e-16
54 1 5.4225 12.6525 -2.13645e-16
55 1 3.615 12.6525 1.8075
56 1 5.4225 10.845 1.8075
57 1 7.23 10.845 -1.49377e-16
58 1 9.0375 12.6525 -6.12183e-17
59 1 7.23 12.6525 1.8075
60 1 9.0375 10.845 1.8075
61 1 10.845 10.845 -5.56275e-17
62 1 12.6525 12.6525 -4.86345e-17
63 1 10.845 12.6525 1.8075
64 1 12.6525 10.845 1.8075
65 1 -2.45489e-16 -2.48962e-16 3.615
66 1 1.8075 1.8075 3.615
67 1 -3.2423e-16 1.8075 5.4225
68 1 1.8075 -3.36968e-16 5.4225
69 1 3.615 -3.38129e-16 3.615
70 1 5.4225 1.8075 3.615
71 1 3.615 1.8075 5.4225
72 1 5.4225 -3.42758e-16 5.4225
73 1 7.23 -2.87175e-16 3.615
74 1 9.0375 1.8075 3.615
75 1 7.23 1.8075 5.4225
76 1 9.0375 -2.03551e-16 5.4225
77 1 10.845 -2.0496e-16 3.615
78 1 12.6525 1.8075 3.615
79 1 10.845 1.8075 5.4225
80 1 12.6525 -1.9917e-16 5.4225
81 1 -3.2423e-16 3.615 3.615
82 1 1.8075 5.4225 3.615
83 1 -3.52021e-16 5.4225 5.4225
84 1 1.8075 3.615 5.4225
85 1 3.615 3.615 3.615
86 1 5.4225 5.4225 3.615
87 1 3.615 5.4225 5.4225
88 1 5.4225 3.615 5.4225
89 1 7.23 3.615 3.615
90 1 9.0375 5.4225 3.615
91 1 7.23 5.4225 5.4225
92 1 9.0375 3.615 5.4225
93 1 10.845 3.615 3.615
94 1 12.6525 5.4225 3.615
95 1 10.845 5.4225 5.4225
96 1 12.6525 3.615 5.4225
97 1 -2.64016e-16 7.23 3.615
98 1 1.8075 9.0375 3.615
99 1 -1.94538e-16 9.0375 5.4225
100 1 1.8075 7.23 5.4225
101 1 3.615 7.23 3.615
102 1 5.4225 9.0375 3.615
103 1 3.615 9.0375 5.4225
104 1 5.4225 7.23 5.4225
105 1 7.23 7.23 3.615
106 1 9.0375 9.0375 3.615
107 1 7.23 9.0375 5.4225
108 1 9.0375 7.23 5.4225
109 1 10.845 7.23 3.615
110 1 12.6525 9.0375 3.615
111 1 10.845 9.0375 5.4225
112 1 12.6525 7.23 5.4225
113 1 -1.89906e-16 10.845 3.615
114 1 1.8075 12.6525 3.615
115 1 -1.94538e-16 12.6525 5.4225
116 1 1.8075 10.845 5.4225
117 1 3.615 10.845 3.615
118 1 5.4225 12.6525 3.615
119 1 3.615 12.6525 5.4225
120 1 5.4225 10.845 5.4225
121 1 7.23 10.845 3.615
122 1 9.0375 12.6525 3.615
123 1 7.23 12.6525 5.4225
124 1 9.0375 10.845 5.4225
125 1 10.845 10.845 3.615
126 1 12.6525 12.6525 3.615
127 1 10.845 12.6525 5.4225
128 1 12.6525 10.845 5.4225
129 1 -1.9917e-16 -2.06118e-16 7.23
130 1 1.8075 1.8075 7.23
131 1 -1.94538e-16 1.8075 9.0375
132 1 1.8075 -1.818e-16 9.0375
133 1 3.615 -2.73284e-16 7.23
134 1 5.4225 1.8075 7.23
135 1 3.615 1.8075 9.0375
136 1 5.4225 -1.89906e-16 9.0375
137 1 7.23 -2.17697e-16 7.23
138 1 9.0375 1.8075 7.23
139 1 7.23 1.8075 9.0375
140 1 9.0375 -3.21686e-17 9.0375
141 1 10.845 -1.64431e-16 7.23
142 1 12.6525 1.8075 7.23
143 1 10.845 1.8075 9.0375
144 1 12.6525 -6.4846e-17 9.0375
145 1 -2.77912e-16 3.615 7.23
146 1 1.8075 5.4225 7.23
147 1 -1.89906e-16 5.4225 9.0375
148 1 1.8075 3.615 9.0375
149 1 3.615 3.615 7.23
150 1 5.4225 5.4225 7.23
151 1 3.615 5.4225 9.0375
152 1 5.4225 3.615 9.0375
153 1 7.23 3.615 7.23
154 1 9.0375 5.4225 7.23
155 1 7.23 5.4225 9.0375
156 1 9.0375 3.615 9.0375
157 1 10.845 3.615 7.23
158 1 12.6525 5.4225 7.23
159 1 10.845 5.4225 9.0375
160 1 12.6525 3.615 9.0375
161 1 -2.26961e-16 7.23 7.23
162 1 1.8075 9.0375 7.23
163 1 -4.16867e-17 9.0375 9.0375
164 1 1.8075 7.23 9.0375
165 1 3.615 7.23 7.23
166 1 5.4225 9.0375 7.23
167 1 3.615 9.0375 9.0375
168 1 5.4225 7.23 9.0375
169 1 7.23 7.23 7.23
170 1 9.0375 9.0375 7.23
171 1 7.23 9.0375 9.0375
172 1 9.0375 7.23 9.0375
173 1 10.845 7.23 7.23
174 1 12.6525 9.0375 7.23
175 1 10.845 9.0375 9.0375
176 1 12.6525 7.23 9.0375
177 1 -1.34324e-16 10.845 7.23
178 1 1.8075 12.6525 7.23
179 1 -5.09505e-17 12.6525 9.0375
180 1 1.8075 10.845 9.0375
181 1 3.615 10.845 7.23
182 1 5.4225 12.6525 7.23
183 1 3.615 12.6525 9.0375
184 1 5.4225 10.845 9.0375
185 1 7.23 10.845 7.23
186 1 9.0375 12.6525 7.23
187 1 7.23 12.6525 9.0375
188 1 9.0375 10.845 9.0375
189 1 10.845 10.845 7.23
190 1 12.6525 12.6525 7.23
191 1 10.845 12.6525 9.0375
192 1 12.6525 10.845 9.0375
193 1 -1.06533e-16 -1.16954e-16 10.845
194 1 1.8075 1.8075 10.845
195 1 -2.08434e-16 1.8075 12.6525
196 1 1.8075 -2.15381e-16 12.6525
197 1 3.615 -2.17702e-16 10.845
198 1 5.4225 1.8075 10.845
199 1 3.615 1.8075 12.6525
200 1 5.4225 -1.94538e-16 12.6525
201 1 7.23 -1.29692e-16 10.845
202 1 9.0375 1.8075 10.845
203 1 7.23 1.8075 12.6525
204 1 9.0375 -3.70402e-17 12.6525
205 1 10.845 -4.86345e-17 10.845
206 1 12.6525 1.8075 10.845
207 1 10.845 1.8075 12.6525
208 1 12.6525 -2.66332e-17 12.6525
209 1 -2.13066e-16 3.615 10.845
210 1 1.8075 5.4225 10.845
211 1 -1.94538e-16 5.4225 12.6525
212 1 1.8075 3.615 12.6525
213 1 3.615 3.615 10.845
214 1 5.4225 5.4225 10.845
215 1 3.615 5.4225 12.6525
216 1 5.4225 3.615 12.6525
217 1 7.23 3.615 10.845
218 1 9.0375 5.4225 10.845
219 1 7.23 5.4225 12.6525
220 1 9.0375 3.615 12.6525
221 1 10.845 3.615 10.845
222 1 12.6525 5.4225 10.845
223 1 10.845 5.4225 12.6525
224 1 12.6525 3.615 12.6525
225 1 -1.38956e-16 7.23 10.845
226 1 1.8075 9.0375 10.845
227 1 -4.63186e-17 9.0375 12.6525
228 1 1.8075 7.23 12.6525
229 1 3.615 7.23 10.845
230 1 5.4225 9.0375 10.845
231 1 3.615 9.0375 12.6525
232 1 5.4225 7.23 12.6525
233 1 7.23 7.23 10.845
234 1 9.0375 9.0375 10.845
235 1 7.23 9.0375 12.6525
236 1 9.0375 7.23 12.6525
237 1 10.845 7.23 10.845
238 1 12.6525 9.0375 10.845
239 1 10.845 9.0375 12.6525
240 1 12.6525 7.23 12.6525
241 1 -5.55823e-17 10.845 10.845
242 1 1.8075 12.6525 10.845
243 1 -4.63186e-17 12.6525 12.6525
244 1 1.8075 10.845 12.6525
245 1 3.615 10.845 10.845
246 1 5.4225 12.6525 10.845
247 1 3.615 12.6525 12.6525
248 1 5.4225 10.845 12.6525
249 1 7.23 10.845 10.845
250 1 9.0375 12.6525 10.845
251 1 7.23 12.6525 12.6525
252 1 9.0375 10.845 12.6525
253 1 10.845 10.845 10.845
254 1 12.6525 12.6525 10.845
255 1 10.845 12.6525 12.6525
256 1 12.6525 10.845 12.6525
