ITEM: TIMESTEP
1
ITEM: NUMBER OF ATOMS
256
ITEM: BOX BOUNDS pp pp pp
0.0000000000000000e+00 1.4460000000000001e+01
0.0000000000000000e+00 1.4460000000000001e+01
0.0000000000000000e+00 1.4460000000000001e+01
ITEM: ATOMS id type x y z
1 1 0 0 0
2 1 1.8075 1.8075 0
3 1 0 1.8075 1.8075
4 1 1.8075 0 1.8075
5 1 3.615 0 0
6 1 5.4225 1.8075 0
7 1 3.615 1.8075 1.8075
8 1 5.4225 0 1.8075
9 1 7.23 0 0
10 1 9.0375 1.8075 0
11 1 7.23 1.8075 1.8075
12 1 9.0375 0 1.8075
13 1 10.845 0 0
14 1 12.6525 1.8075 0
15 1 10.845 1.8075 1.8075
16 1 12.6525 0 1.8075
17 1 0 3.615 0
18 1 1.8075 5.4225 0
19 1 0 5.4225 1.8075
20 1 1.8075 3.615 1.8075
21 1 3.615 3.615 0
22 1 5.4225 5.4225 0
23 1 3.615 5.4225 1.8075
24 1 5.4225 3.615 1.8075
25 1 7.23 3.615 0
26 1 9.0375 5.4225 0
27 1 7.23 5.4225 1.8075
28 1 9.0375 3.615 1.8075
29 1 10.845 3.615 0
30 1 12.6525 5.4225 0
31 1 10.845 5.4225 1.8075
32 1 12.6525 3.615 1.8075
33 1 0 7.23 0
34 1 1.8075 9.0375 0
35 1 0 9.0375 1.8075
36 1 1.8075 7.23 1.8075
37 1 3.615 7.23 0
38 1 5.4225 9.0375 0
39 1 3.615 9.0375 1.8075
40 1 5.4225 7.23 1.8075
41 1 7.23 7.23 0
42 1 9.0375 9.0375 0
43 1 7.23 9.0375 1.8075
44 1 9.0375 7.23 1.8075
45 1 10.845 7.23 0
46 1 12.6525 9.0375 0
47 1 10.845 9.0375 1.8075
48 1 12.6525 7.23 1.8075
49 1 0 10.845 0
50 1 1.8075 12.6525 0
51 1 0 12.6525 1.8075
52 1 1.8075 10.845 1.8075
53 1 3.615 10.845 0
54 1 5.4225 12.6525 0
55 1 3.615 12.6525 1.8075
56 1 5.4225 10.845 1.8075
57 1 7.23 10.845 0
58 1 9.0375 12.6525 0
59 1 7.23 12.6525 1.8075
60 1 9.0375 10.845 1.8075
61 1 10.845 10.845 0
62 1 12.6525 12.6525 0
63 1 10.845 12.6525 1.8075
64 1 12.6525 10.845 1.8075
65 1 0 0 3.615
66 1 1.8075 1.8075 3.615
67 1 0 1.8075 5.4225
68 1 1.8075 0 5.4225
69 1 3.615 0 3.615
70 1 5.4225 1.8075 3.615
71 1 3.615 1.8075 5.4225
72 1 5.4225 0 5.4225
73 1 7.23 0 3.615
74 1 9.0375 1.8075 3.615
75 1 7.23 1.8075 5.4225
76 1 9.0375 0 5.4225
77 1 10.845 0 3.615
78 1 12.6525 1.8075 3.615
79 1 10.845 1.8075 5.4225
80 1 12.6525 0 5.4225
81 1 0 3.615 3.615
82 1 1.8075 5.4225 3.615
83 1 0 5.4225 5.4225
84 1 1.8075 3.615 5.4225
85 1 3.615 3.615 3.615
86 1 5.4225 5.4225 3.615
87 1 3.615 5.4225 5.4225
88 1 5.4225 3.615 5.4225
89 1 7.23 3.615 3.615
90 1 9.0375 5.4225 3.615
91 1 7.23 5.4225 5.4225
92 1 9.0375 3.615 5.4225
93 1 10.845 3.615 3.615
94 1 12.6525 5.4225 3.615
95 1 10.845 5.4225 5.4225
96 1 12.6525 3.615 5.4225
97 1 0 7.23 3.615
98 1 1.8075 9.0375 3.615
99 1 0 9.0375 5.4225
100 1 1.8075 7.23 5.4225
101 1 3.615 7.23 3.615
102 1 5.4225 9.0375 3.615
103 1 3.615 9.0375 5.4225
104 1 5.4225 7.23 5.4225
105 1 7.23 7.23 3.615
106 1 9.0375 9.0375 3.615
107 1 7.23 9.0375 5.4225
108 1 9.0375 7.23 5.4225
109 1 10.845 7.23 3.615
110 1 12.6525 9.0375 3.615
111 1 10.845 9.0375 5.4225
112 1 12.6525 7.23 5.4225
113 1 0 10.845 3.615
114 1 1.8075 12.6525 3.615
115 1 0 12.6525 5.4225
116 1 1.8075 10.845 5.4225
117 1 3.615 10.845 3.615
118 1 5.4225 12.6525 3.615
119 1 3.615 12.6525 5.4225
120 1 5.4225 10.845 5.4225
121 1 7.23 10.845 3.615
122 1 9.0375 12.6525 3.615
123 1 7.23 12.6525 5.4225
124 1 9.0375 10.845 5.4225
125 1 10.845 10.845 3.615
126 1 12.6525 12.6525 3.615
127 1 10.845 12.6525 5.4225
128 1 12.6525 10.845 5.4225
129 1 0 0 7.23
130 1 1.8075 1.8075 7.23
131 1 0 1.8075 9.0375
132 1 1.8075 0 9.0375
133 1 3.615 0 7.23
134 1 5.4225 1.8075 7.23
135 1 3.615 1.8075 9.0375
136 1 5.4225 0 9.0375
137 1 7.23 0 7.23
138 1 9.0375 1.8075 7.23
139 1 7.23 1.8075 9.0375
140 1 9.0375 0 9.0375
141 1 10.845 0 7.23
142 1 12.6525 1.8075 7.23
143 1 10.845 1.8075 9.0375
144 1 12.6525 0 9.0375
145 1 0 3.615 7.23
146 1 1.8075 5.4225 7.23
147 1 0 5.4225 9.0375
148 1 1.8075 3.615 9.0375
149 1 3.615 3.615 7.23
150 1 5.4225 5.4225 7.23
151 1 3.615 5.4225 9.0375
152 1 5.4225 3.615 9.0375
153 1 7.23 3.615 7.23
154 1 9.0375 5.4225 7.23
155 1 7.23 5.4225 9.0375
156 1 9.0375 3.615 9.0375
157 1 10.845 3.615 7.23
158 1 12.6525 5.4225 7.23
159 1 10.845 5.4225 9.0375
160 1 12.6525 3.615 9.0375
161 1 0 7.23 7.23
162 1 1.8075 9.0375 7.23
163 1 0 9.0375 9.0375
164 1 1.8075 7.23 9.0375
165 1 3.615 7.23 7.23
166 1 5.4225 9.0375 7.23
167 1 3.615 9.0375 9.0375
168 1 5.4225 7.23 9.0375
169 1 7.23 7.23 7.23
170 1 9.0375 9.0375 7.23
171 1 7.23 9.0375 9.0375
172 1 9.0375 7.23 9.0375
173 1 10.845 7.23 7.23
174 1 12.6525 9.0375 7.23
175 1 10.845 9.0375 9.0375
176 1 12.6525 7.23 9.0375
177 1 0 10.845 7.23
178 1 1.8075 12.6525 7.23
179 1 0 12.6525 9.0375
180 1 1.8075 10.845 9.0375
181 1 3.615 10.845 7.23
182 1 5.4225 12.6525 7.23
183 1 3.615 12.6525 9.0375
184 1 5.4225 10.845 9.0375
185 1 7.23 10.845 7.23
186 1 9.0375 12.6525 7.23
187 1 7.23 12.6525 9.0375
188 1 9.0375 10.845 9.0375
189 1 10.845 10.845 7.23
190 1 12.6525 12.6525 7.23
191 1 10.845 12.6525 9.0375
192 1 12.6525 10.845 9.0375
193 1 0 0 10.845
194 1 1.8075 1.8075 10.845
195 1 0 1.8075 12.6525
196 1 1.8075 0 12.6525
197 1 3.615 0 10.845
198 1 5.4225 1.8075 10.845
199 1 3.615 1.8075 12.6525
200 1 5.4225 0 12.6525
201 1 7.23 0 10.845
202 1 9.0375 1.8075 10.845
203 1 7.23 1.8075 12.6525
204 1 9.0375 0 12.6525
205 1 10.845 0 10.845
206 1 12.6525 1.8075 10.845
207 1 10.845 1.8075 12.6525
208 1 12.6525 0 12.6525
209 1 0 3.615 10.845
210 1 1.8075 5.4225 10.845
211 1 0 5.4225 12.6525
212 1 1.8075 3.615 12.6525
213 1 3.615 3.615 10.845
214 1 5.4225 5.4225 10.845
215 1 3.615 5.4225 12.6525
216 1 5.4225 3.615 12.6525
217 1 7.23 3.615 10.845
218 1 9.0375 5.4225 10.845
219 1 7.23 5.4225 12.6525
220 1 9.0375 3.615 12.6525
221 1 10.845 3.615 10.845
222 1 12.6525 5.4225 10.845
223 1 10.845 5.4225 12.6525
224 1 12.6525 3.615 12.6525
225 1 0 7.23 10.845
226 1 1.8075 9.0375 10.845
227 1 0 9.0375 12.6525
228 1 1.8075 7.23 12.6525
229 1 3.615 7.23 10.845
230 1 5.4225 9.0375 10.845
231 1 3.615 9.0375 12.6525
232 1 5.4225 7.23 12.6525
233 1 7.23 7.23 10.845
234 1 9.0375 9.0375 10.845
235 1 7.23 9.0375 12.6525
236 1 9.0375 7.23 12.6525
237 1 10.845 7.23 10.845
238 1 12.6525 9.0375 10.845
239 1 10.845 9.0375 12.6525
240 1 12.6525 7.23 12.6525
241 1 0 10.845 10.845
242 1 1.8075 12.6525 10.845
243 1 0 12.6525 12.6525
244 1 1.8075 10.845 12.6525
245 1 3.615 10.845 10.845
246 1 5.4225 12.6525 10.845
247 1 3.615 12.6525 12.6525
248 1 5.4225 10.845 12.6525
249 1 7.23 10.845 10.845
250 1 9.0375 12.6525 10.845
251 1 7.23 12.6525 12.6525
252 1 9.0375 10.845 12.6525
253 1 10.845 10.845 10.845
254 1 12.6525 12.6525 10.845
255 1 10.845 12.6525 12.6525
256 1 12.6525 10.845 12.6525
