 # Fcc Cu oriented X=[100] Y=[010] Z=[001].
 
         256  atoms
           1  atom types
 
      0.000000000000      14.460000000000  xlo xhi
      0.000000000000      14.460000000000  ylo yhi
      0.000000000000      14.460000000000  zlo zhi
 
Masses
 
            1   63.54600000             # Cu
 
Atoms # atomic
 
         1    1        0.000000000000       0.000000000000       0.000000000000
         2    1        1.807500000000       1.807500000000       0.000000000000
         3    1        0.000000000000       1.807500000000       1.807500000000
         4    1        1.807500000000       0.000000000000       1.807500000000
         5    1        3.615000000000       0.000000000000       0.000000000000
         6    1        5.422500000000       1.807500000000       0.000000000000
         7    1        3.615000000000       1.807500000000       1.807500000000
         8    1        5.422500000000       0.000000000000       1.807500000000
         9    1        7.230000000000       0.000000000000       0.000000000000
        10    1        9.037500000000       1.807500000000       0.000000000000
        11    1        7.230000000000       1.807500000000       1.807500000000
        12    1        9.037500000000       0.000000000000       1.807500000000
        13    1       10.845000000000       0.000000000000       0.000000000000
        14    1       12.652500000000       1.807500000000       0.000000000000
        15    1       10.845000000000       1.807500000000       1.807500000000
        16    1       12.652500000000       0.000000000000       1.807500000000
        17    1        0.000000000000       3.615000000000       0.000000000000
        18    1        1.807500000000       5.422500000000       0.000000000000
        19    1        0.000000000000       5.422500000000       1.807500000000
        20    1        1.807500000000       3.615000000000       1.807500000000
        21    1        3.615000000000       3.615000000000       0.000000000000
        22    1        5.422500000000       5.422500000000       0.000000000000
        23    1        3.615000000000       5.422500000000       1.807500000000
        24    1        5.422500000000       3.615000000000       1.807500000000
        25    1        7.230000000000       3.615000000000       0.000000000000
        26    1        9.037500000000       5.422500000000       0.000000000000
        27    1        7.230000000000       5.422500000000       1.807500000000
        28    1        9.037500000000       3.615000000000       1.807500000000
        29    1       10.845000000000       3.615000000000       0.000000000000
        30    1       12.652500000000       5.422500000000       0.000000000000
        31    1       10.845000000000       5.422500000000       1.807500000000
        32    1       12.652500000000       3.615000000000       1.807500000000
        33    1        0.000000000000       7.230000000000       0.000000000000
        34    1        1.807500000000       9.037500000000       0.000000000000
        35    1        0.000000000000       9.037500000000       1.807500000000
        36    1        1.807500000000       7.230000000000       1.807500000000
        37    1        3.615000000000       7.230000000000       0.000000000000
        38    1        5.422500000000       9.037500000000       0.000000000000
        39    1        3.615000000000       9.037500000000       1.807500000000
        40    1        5.422500000000       7.230000000000       1.807500000000
        41    1        7.230000000000       7.230000000000       0.000000000000
        42    1        9.037500000000       9.037500000000       0.000000000000
        43    1        7.230000000000       9.037500000000       1.807500000000
        44    1        9.037500000000       7.230000000000       1.807500000000
        45    1       10.845000000000       7.230000000000       0.000000000000
        46    1       12.652500000000       9.037500000000       0.000000000000
        47    1       10.845000000000       9.037500000000       1.807500000000
        48    1       12.652500000000       7.230000000000       1.807500000000
        49    1        0.000000000000      10.845000000000       0.000000000000
        50    1        1.807500000000      12.652500000000       0.000000000000
        51    1        0.000000000000      12.652500000000       1.807500000000
        52    1        1.807500000000      10.845000000000       1.807500000000
        53    1        3.615000000000      10.845000000000       0.000000000000
        54    1        5.422500000000      12.652500000000       0.000000000000
        55    1        3.615000000000      12.652500000000       1.807500000000
        56    1        5.422500000000      10.845000000000       1.807500000000
        57    1        7.230000000000      10.845000000000       0.000000000000
        58    1        9.037500000000      12.652500000000       0.000000000000
        59    1        7.230000000000      12.652500000000       1.807500000000
        60    1        9.037500000000      10.845000000000       1.807500000000
        61    1       10.845000000000      10.845000000000       0.000000000000
        62    1       12.652500000000      12.652500000000       0.000000000000
        63    1       10.845000000000      12.652500000000       1.807500000000
        64    1       12.652500000000      10.845000000000       1.807500000000
        65    1        0.000000000000       0.000000000000       3.615000000000
        66    1        1.807500000000       1.807500000000       3.615000000000
        67    1        0.000000000000       1.807500000000       5.422500000000
        68    1        1.807500000000       0.000000000000       5.422500000000
        69    1        3.615000000000       0.000000000000       3.615000000000
        70    1        5.422500000000       1.807500000000       3.615000000000
        71    1        3.615000000000       1.807500000000       5.422500000000
        72    1        5.422500000000       0.000000000000       5.422500000000
        73    1        7.230000000000       0.000000000000       3.615000000000
        74    1        9.037500000000       1.807500000000       3.615000000000
        75    1        7.230000000000       1.807500000000       5.422500000000
        76    1        9.037500000000       0.000000000000       5.422500000000
        77    1       10.845000000000       0.000000000000       3.615000000000
        78    1       12.652500000000       1.807500000000       3.615000000000
        79    1       10.845000000000       1.807500000000       5.422500000000
        80    1       12.652500000000       0.000000000000       5.422500000000
        81    1        0.000000000000       3.615000000000       3.615000000000
        82    1        1.807500000000       5.422500000000       3.615000000000
        83    1        0.000000000000       5.422500000000       5.422500000000
        84    1        1.807500000000       3.615000000000       5.422500000000
        85    1        3.615000000000       3.615000000000       3.615000000000
        86    1        5.422500000000       5.422500000000       3.615000000000
        87    1        3.615000000000       5.422500000000       5.422500000000
        88    1        5.422500000000       3.615000000000       5.422500000000
        89    1        7.230000000000       3.615000000000       3.615000000000
        90    1        9.037500000000       5.422500000000       3.615000000000
        91    1        7.230000000000       5.422500000000       5.422500000000
        92    1        9.037500000000       3.615000000000       5.422500000000
        93    1       10.845000000000       3.615000000000       3.615000000000
        94    1       12.652500000000       5.422500000000       3.615000000000
        95    1       10.845000000000       5.422500000000       5.422500000000
        96    1       12.652500000000       3.615000000000       5.422500000000
        97    1        0.000000000000       7.230000000000       3.615000000000
        98    1        1.807500000000       9.037500000000       3.615000000000
        99    1        0.000000000000       9.037500000000       5.422500000000
       100    1        1.807500000000       7.230000000000       5.422500000000
       101    1        3.615000000000       7.230000000000       3.615000000000
       102    1        5.422500000000       9.037500000000       3.615000000000
       103    1        3.615000000000       9.037500000000       5.422500000000
       104    1        5.422500000000       7.230000000000       5.422500000000
       105    1        7.230000000000       7.230000000000       3.615000000000
       106    1        9.037500000000       9.037500000000       3.615000000000
       107    1        7.230000000000       9.037500000000       5.422500000000
       108    1        9.037500000000       7.230000000000       5.422500000000
       109    1       10.845000000000       7.230000000000       3.615000000000
       110    1       12.652500000000       9.037500000000       3.615000000000
       111    1       10.845000000000       9.037500000000       5.422500000000
       112    1       12.652500000000       7.230000000000       5.422500000000
       113    1        0.000000000000      10.845000000000       3.615000000000
       114    1        1.807500000000      12.652500000000       3.615000000000
       115    1        0.000000000000      12.652500000000       5.422500000000
       116    1        1.807500000000      10.845000000000       5.422500000000
       117    1        3.615000000000      10.845000000000       3.615000000000
       118    1        5.422500000000      12.652500000000       3.615000000000
       119    1        3.615000000000      12.652500000000       5.422500000000
       120    1        5.422500000000      10.845000000000       5.422500000000
       121    1        7.230000000000      10.845000000000       3.615000000000
       122    1        9.037500000000      12.652500000000       3.615000000000
       123    1        7.230000000000      12.652500000000       5.422500000000
       124    1        9.037500000000      10.845000000000       5.422500000000
       125    1       10.845000000000      10.845000000000       3.615000000000
       126    1       12.652500000000      12.652500000000       3.615000000000
       127    1       10.845000000000      12.652500000000       5.422500000000
       128    1       12.652500000000      10.845000000000       5.422500000000
       129    1        0.000000000000       0.000000000000       7.230000000000
       130    1        1.807500000000       1.807500000000       7.230000000000
       131    1        0.000000000000       1.807500000000       9.037500000000
       132    1        1.807500000000       0.000000000000       9.037500000000
       133    1        3.615000000000       0.000000000000       7.230000000000
       134    1        5.422500000000       1.807500000000       7.230000000000
       135    1        3.615000000000       1.807500000000       9.037500000000
       136    1        5.422500000000       0.000000000000       9.037500000000
       137    1        7.230000000000       0.000000000000       7.230000000000
       138    1        9.037500000000       1.807500000000       7.230000000000
       139    1        7.230000000000       1.807500000000       9.037500000000
       140    1        9.037500000000       0.000000000000       9.037500000000
       141    1       10.845000000000       0.000000000000       7.230000000000
       142    1       12.652500000000       1.807500000000       7.230000000000
       143    1       10.845000000000       1.807500000000       9.037500000000
       144    1       12.652500000000       0.000000000000       9.037500000000
       145    1        0.000000000000       3.615000000000       7.230000000000
       146    1        1.807500000000       5.422500000000       7.230000000000
       147    1        0.000000000000       5.422500000000       9.037500000000
       148    1        1.807500000000       3.615000000000       9.037500000000
       149    1        3.615000000000       3.615000000000       7.230000000000
       150    1        5.422500000000       5.422500000000       7.230000000000
       151    1        3.615000000000       5.422500000000       9.037500000000
       152    1        5.422500000000       3.615000000000       9.037500000000
       153    1        7.230000000000       3.615000000000       7.230000000000
       154    1        9.037500000000       5.422500000000       7.230000000000
       155    1        7.230000000000       5.422500000000       9.037500000000
       156    1        9.037500000000       3.615000000000       9.037500000000
       157    1       10.845000000000       3.615000000000       7.230000000000
       158    1       12.652500000000       5.422500000000       7.230000000000
       159    1       10.845000000000       5.422500000000       9.037500000000
       160    1       12.652500000000       3.615000000000       9.037500000000
       161    1        0.000000000000       7.230000000000       7.230000000000
       162    1        1.807500000000       9.037500000000       7.230000000000
       163    1        0.000000000000       9.037500000000       9.037500000000
       164    1        1.807500000000       7.230000000000       9.037500000000
       165    1        3.615000000000       7.230000000000       7.230000000000
       166    1        5.422500000000       9.037500000000       7.230000000000
       167    1        3.615000000000       9.037500000000       9.037500000000
       168    1        5.422500000000       7.230000000000       9.037500000000
       169    1        7.230000000000       7.230000000000       7.230000000000
       170    1        9.037500000000       9.037500000000       7.230000000000
       171    1        7.230000000000       9.037500000000       9.037500000000
       172    1        9.037500000000       7.230000000000       9.037500000000
       173    1       10.845000000000       7.230000000000       7.230000000000
       174    1       12.652500000000       9.037500000000       7.230000000000
       175    1       10.845000000000       9.037500000000       9.037500000000
       176    1       12.652500000000       7.230000000000       9.037500000000
       177    1        0.000000000000      10.845000000000       7.230000000000
       178    1        1.807500000000      12.652500000000       7.230000000000
       179    1        0.000000000000      12.652500000000       9.037500000000
       180    1        1.807500000000      10.845000000000       9.037500000000
       181    1        3.615000000000      10.845000000000       7.230000000000
       182    1        5.422500000000      12.652500000000       7.230000000000
       183    1        3.615000000000      12.652500000000       9.037500000000
       184    1        5.422500000000      10.845000000000       9.037500000000
       185    1        7.230000000000      10.845000000000       7.230000000000
       186    1        9.037500000000      12.652500000000       7.230000000000
       187    1        7.230000000000      12.652500000000       9.037500000000
       188    1        9.037500000000      10.845000000000       9.037500000000
       189    1       10.845000000000      10.845000000000       7.230000000000
       190    1       12.652500000000      12.652500000000       7.230000000000
       191    1       10.845000000000      12.652500000000       9.037500000000
       192    1       12.652500000000      10.845000000000       9.037500000000
       193    1        0.000000000000       0.000000000000      10.845000000000
       194    1        1.807500000000       1.807500000000      10.845000000000
       195    1        0.000000000000       1.807500000000      12.652500000000
       196    1        1.807500000000       0.000000000000      12.652500000000
       197    1        3.615000000000       0.000000000000      10.845000000000
       198    1        5.422500000000       1.807500000000      10.845000000000
       199    1        3.615000000000       1.807500000000      12.652500000000
       200    1        5.422500000000       0.000000000000      12.652500000000
       201    1        7.230000000000       0.000000000000      10.845000000000
       202    1        9.037500000000       1.807500000000      10.845000000000
       203    1        7.230000000000       1.807500000000      12.652500000000
       204    1        9.037500000000       0.000000000000      12.652500000000
       205    1       10.845000000000       0.000000000000      10.845000000000
       206    1       12.652500000000       1.807500000000      10.845000000000
       207    1       10.845000000000       1.807500000000      12.652500000000
       208    1       12.652500000000       0.000000000000      12.652500000000
       209    1        0.000000000000       3.615000000000      10.845000000000
       210    1        1.807500000000       5.422500000000      10.845000000000
       211    1        0.000000000000       5.422500000000      12.652500000000
       212    1        1.807500000000       3.615000000000      12.652500000000
       213    1        3.615000000000       3.615000000000      10.845000000000
       214    1        5.422500000000       5.422500000000      10.845000000000
       215    1        3.615000000000       5.422500000000      12.652500000000
       216    1        5.422500000000       3.615000000000      12.652500000000
       217    1        7.230000000000       3.615000000000      10.845000000000
       218    1        9.037500000000       5.422500000000      10.845000000000
       219    1        7.230000000000       5.422500000000      12.652500000000
       220    1        9.037500000000       3.615000000000      12.652500000000
       221    1       10.845000000000       3.615000000000      10.845000000000
       222    1       12.652500000000       5.422500000000      10.845000000000
       223    1       10.845000000000       5.422500000000      12.652500000000
       224    1       12.652500000000       3.615000000000      12.652500000000
       225    1        0.000000000000       7.230000000000      10.845000000000
       226    1        1.807500000000       9.037500000000      10.845000000000
       227    1        0.000000000000       9.037500000000      12.652500000000
       228    1        1.807500000000       7.230000000000      12.652500000000
       229    1        3.615000000000       7.230000000000      10.845000000000
       230    1        5.422500000000       9.037500000000      10.845000000000
       231    1        3.615000000000       9.037500000000      12.652500000000
       232    1        5.422500000000       7.230000000000      12.652500000000
       233    1        7.230000000000       7.230000000000      10.845000000000
       234    1        9.037500000000       9.037500000000      10.845000000000
       235    1        7.230000000000       9.037500000000      12.652500000000
       236    1        9.037500000000       7.230000000000      12.652500000000
       237    1       10.845000000000       7.230000000000      10.845000000000
       238    1       12.652500000000       9.037500000000      10.845000000000
       239    1       10.845000000000       9.037500000000      12.652500000000
       240    1       12.652500000000       7.230000000000      12.652500000000
       241    1        0.000000000000      10.845000000000      10.845000000000
       242    1        1.807500000000      12.652500000000      10.845000000000
       243    1        0.000000000000      12.652500000000      12.652500000000
       244    1        1.807500000000      10.845000000000      12.652500000000
       245    1        3.615000000000      10.845000000000      10.845000000000
       246    1        5.422500000000      12.652500000000      10.845000000000
       247    1        3.615000000000      12.652500000000      12.652500000000
       248    1        5.422500000000      10.845000000000      12.652500000000
       249    1        7.230000000000      10.845000000000      10.845000000000
       250    1        9.037500000000      12.652500000000      10.845000000000
       251    1        7.230000000000      12.652500000000      12.652500000000
       252    1        9.037500000000      10.845000000000      12.652500000000
       253    1       10.845000000000      10.845000000000      10.845000000000
       254    1       12.652500000000      12.652500000000      10.845000000000
       255    1       10.845000000000      12.652500000000      12.652500000000
       256    1       12.652500000000      10.845000000000      12.652500000000
