LAMMPS (22 Dec 2022)
Reading data file ...
  orthogonal box = (0 0 0) to (14.46 14.46 14.46)
  1 by 1 by 1 MPI processor grid
  reading atoms ...
  256 atoms
  read_data CPU = 0.001 seconds
ACE version: 2022.6.27
Recursive evaluator is used
Loading 
