ITEM: TIMESTEP
0
ITEM: NUMBER OF ATOMS
255
ITEM: BOX BOUNDS pp pp pp
0.0000000000000000e+00 1.4460000000000001e+01
0.0000000000000000e+00 1.4460000000000001e+01
0.0000000000000000e+00 1.4460000000000001e+01
ITEM: ATOMS id type element xsu ysu zsu fx fy fz
1 1 Cu                0.125                0.125                    0  -0.0441756695578767  -0.0441756695578767 -9.0205620750794e-17
2 1 Cu                    0                0.125                0.125 -6.34908792207511e-16  -0.0441756695578765  -0.0441756695578768
3 1 Cu                0.125                    0                0.125  -0.0441756695578767 -4.68375338513738e-16  -0.0441756695578768
4 1 Cu                 0.25                    0                    0    0.103641175257136 -8.93165749693559e-16 -6.6976589205292e-16
5 1 Cu                0.375                0.125                    0   0.0184487764360265 0.000808228068890283 -6.07153216591882e-16
6 1 Cu                 0.25                0.125                0.125  -0.0171256508723576  -0.0143322162058709   -0.014332216205871
7 1 Cu                0.375                    0                0.125   0.0184487764360265 -9.61036805691151e-16 0.000808228068890367
8 1 Cu                  0.5                    0                    0 -6.35505103402378e-16 -7.07767178198537e-16 -6.47051856539349e-16
9 1 Cu                0.625                0.125                    0  -0.0184487764360252 0.000808228068890568 -3.52582546492286e-16
10 1 Cu                  0.5                0.125                0.125 -1.83501217693172e-16 0.000764359972431825 0.000764359972431844
11 1 Cu                0.625                    0                0.125  -0.0184487764360249 -4.0766001685455e-16 0.000808228068890697
12 1 Cu                 0.75                    0                    0   -0.103641175257138 -8.67361737988404e-17 -3.57353036051222e-16
13 1 Cu                0.875                0.125                    0   0.0441756695578774  -0.0441756695578762 -2.4980018054066e-16
14 1 Cu                 0.75                0.125                0.125   0.0171256508723562  -0.0143322162058701  -0.0143322162058702
15 1 Cu                0.875                    0                0.125   0.0441756695578772 -1.2490009027033e-16   -0.044175669557876
16 1 Cu                    0                 0.25                    0 -8.77770078844264e-16    0.103641175257136 -7.21644966006352e-16
17 1 Cu                0.125                0.375                    0 0.000808228068890127   0.0184487764360267 -7.97972798949331e-16
18 1 Cu                    0                0.375                0.125 -1.11716191852906e-15   0.0184487764360266 0.000808228068890492
19 1 Cu                0.125                 0.25                0.125  -0.0143322162058707  -0.0171256508723578  -0.0143322162058709
20 1 Cu                 0.25                 0.25                    0  -0.0195926188337929   -0.019592618833793 -9.1550031444676e-16
21 1 Cu                0.375                0.375                    0 -0.000553632079034413 -0.000553632079034334 -1.20736753927986e-15
22 1 Cu                 0.25                0.375                0.125  0.00124968894767841  0.00283924156153404   0.0016395822560678
23 1 Cu                0.375                 0.25                0.125  0.00283924156153385  0.00124968894767809  0.00163958225606777
24 1 Cu                  0.5                 0.25                    0 -3.58979339309951e-16 -0.000463206688163804 -7.14922912536942e-16
25 1 Cu                0.625                0.375                    0  0.00055363207903616 -0.000553632079034758 -5.9609435443253e-16
26 1 Cu                  0.5                0.375                0.125 -4.19911501403636e-16 -0.000212742196585377 -3.16120623666317e-05
27 1 Cu                0.625                 0.25                0.125 -0.00283924156153207  0.00124968894767787  0.00163958225606811
28 1 Cu                 0.75                 0.25                    0   0.0195926188337915  -0.0195926188337931 -3.85108611666851e-16
29 1 Cu                0.875                0.375                    0 -0.000808228068889097   0.0184487764360263 -4.8919202022546e-16
30 1 Cu                 0.75                0.375                0.125 -0.00124968894767975  0.00283924156153371  0.00163958225606845
31 1 Cu                0.875                 0.25                0.125   0.0143322162058717  -0.0171256508723575  -0.0143322162058701
32 1 Cu                    0                  0.5                    0 -6.66133814775094e-16 -7.23379689482329e-16 -6.71337985203024e-16
33 1 Cu                0.125                0.625                    0 0.000808228068890495  -0.0184487764360251 -5.34294830600857e-16
34 1 Cu                    0                0.625                0.125 -6.12357387019813e-16   -0.018448776436025 0.000808228068890627
35 1 Cu                0.125                  0.5                0.125 0.000764359972431621 -3.01841884819964e-16 0.000764359972431787
36 1 Cu                 0.25                  0.5                    0 -0.000463206688163586 -3.23146457509305e-16 -8.83407930141189e-16
37 1 Cu                0.375                0.625                    0 -0.000553632079034634 0.000553632079035934 -6.27319377000113e-16
38 1 Cu                 0.25                0.625                0.125  0.00124968894767835  -0.0028392415615322  0.00163958225606815
39 1 Cu                0.375                  0.5                0.125 -0.000212742196585394 -1.24303779075463e-16 -3.16120623665365e-05
40 1 Cu                  0.5                  0.5                    0 -5.95985934215282e-16 -3.37566346403362e-16 -7.14706072102445e-16
41 1 Cu                0.625                0.625                    0 0.000553632079035597 0.000553632079035555 -5.42101086242752e-17
42 1 Cu                  0.5                0.625                0.125 -4.97404851682037e-16 0.000212742196586978 -3.16120623664023e-05
43 1 Cu                0.625                  0.5                0.125  0.00021274219658689 -2.92517746136589e-16 -3.16120623665491e-05
44 1 Cu                 0.75                  0.5                    0  0.00046320668816216 -7.66747776381749e-16 -4.40619762898109e-16
45 1 Cu                0.875                0.625                    0 -0.000808228068889066  -0.0184487764360256 -1.6306400674182e-16
46 1 Cu                 0.75                0.625                0.125 -0.00124968894767959 -0.00283924156153267  0.00163958225606836
47 1 Cu                0.875                  0.5                0.125 -0.000764359972430684 -6.24500451351651e-16 0.000764359972432412
48 1 Cu                    0                 0.75                    0  4.5102810375397e-17   -0.103641175257138 -4.19803081186387e-16
49 1 Cu                0.125                0.875                    0  -0.0441756695578763   0.0441756695578773 -4.44956571588051e-16
50 1 Cu                    0                0.875                0.125 -4.33680868994202e-17   0.0441756695578772  -0.0441756695578759
51 1 Cu                0.125                 0.75                0.125  -0.0143322162058703   0.0171256508723564  -0.0143322162058702
52 1 Cu                 0.25                 0.75                    0  -0.0195926188337929   0.0195926188337915 -6.40519538450124e-16
53 1 Cu                0.375                0.875                    0   0.0184487764360263 -0.000808228068889198 -4.75314232417645e-16
54 1 Cu                 0.25                0.875                0.125  -0.0171256508723572   0.0143322162058715  -0.0143322162058701
55 1 Cu                0.375                 0.75                0.125   0.0028392415615339 -0.00124968894767957  0.00163958225606848
56 1 Cu                  0.5                 0.75                    0 -9.09970883367084e-16 0.000463206688162354 -5.58580959264532e-16
57 1 Cu                0.625                0.875                    0  -0.0184487764360255 -0.000808228068889159 -2.58907478789538e-16
58 1 Cu                  0.5                0.875                0.125  -6.208141639652e-16 -0.000764359972430989 0.000764359972432363
59 1 Cu                0.625                 0.75                0.125 -0.00283924156153266 -0.00124968894767941  0.00163958225606844
60 1 Cu                 0.75                 0.75                    0   0.0195926188337913   0.0195926188337915 -2.15105711021124e-16
61 1 Cu                0.875                0.875                    0   0.0441756695578775   0.0441756695578775 -2.15105711021124e-16
62 1 Cu                 0.75                0.875                0.125   0.0171256508723562   0.0143322162058713  -0.0143322162058698
63 1 Cu                0.875                 0.75                0.125   0.0143322162058714   0.0171256508723564  -0.0143322162058699
64 1 Cu                    0                    0                 0.25 -7.80625564189563e-16 -9.8879238130678e-16    0.103641175257136
65 1 Cu                0.125                0.125                 0.25  -0.0143322162058709  -0.0143322162058709  -0.0171256508723577
66 1 Cu                    0                0.125                0.375 -9.40220123979429e-16 0.000808228068889989   0.0184487764360267
67 1 Cu                0.125                    0                0.375 0.000808228068890027 -6.76542155630955e-16   0.0184487764360266
68 1 Cu                 0.25                    0                 0.25  -0.0195926188337928 -1.1666015375944e-15   -0.019592618833793
69 1 Cu                0.375                0.125                 0.25  0.00283924156153387  0.00163958225606756  0.00124968894767808
70 1 Cu                 0.25                0.125                0.375  0.00124968894767823  0.00163958225606738    0.002839241561534
71 1 Cu                0.375                    0                0.375 -0.000553632079034392 -1.17961196366423e-15 -0.00055363207903472
72 1 Cu                  0.5                    0                 0.25 -4.94992501848257e-16 -1.02001740387436e-15 -0.000463206688163551
73 1 Cu                0.625                0.125                 0.25 -0.00283924156153216  0.00163958225606812  0.00124968894767805
74 1 Cu                  0.5                0.125                0.375 -3.45697862697003e-16 -3.16120623668729e-05 -0.000212742196585554
75 1 Cu                0.625                    0                0.375   0.0005536320790363 -6.86950496486816e-16 -0.000553632079034903
76 1 Cu                 0.75                    0                 0.25   0.0195926188337914 -6.1929628092372e-16   -0.019592618833793
77 1 Cu                0.875                0.125                 0.25   0.0143322162058718  -0.0143322162058704  -0.0171256508723576
78 1 Cu                 0.75                0.125                0.375 -0.00124968894767967  0.00163958225606795  0.00283924156153359
79 1 Cu                0.875                    0                0.375 -0.000808228068889125 -3.64291929955129e-16   0.0184487764360261
80 1 Cu                    0                 0.25                 0.25 -1.32012456521835e-15  -0.0195926188337928  -0.0195926188337931
81 1 Cu                0.125                0.375                 0.25  0.00163958225606748  0.00283924156153394  0.00124968894767813
82 1 Cu                    0                0.375                0.375 -9.85322934354826e-16 -0.000553632079034391 -0.000553632079034792
83 1 Cu                0.125                 0.25                0.375  0.00163958225606738  0.00124968894767802  0.00283924156153376
84 1 Cu                 0.25                 0.25                 0.25  0.00301438870998753  0.00301438870998718  0.00301438870998706
85 1 Cu                0.375                0.375                 0.25 -0.000182671952229511 -0.000182671952229486 -7.71310807826109e-05
86 1 Cu                 0.25                0.375                0.375 -7.7131080782257e-05 -0.000182671952229388 -0.000182671952229742
87 1 Cu                0.375                 0.25                0.375 -0.000182671952229426 -7.71310807824964e-05 -0.00018267195222966
88 1 Cu                  0.5                 0.25                 0.25 -1.23544837554723e-16 -2.82659139785747e-05 -2.82659139784851e-05
89 1 Cu                0.625                0.375                 0.25 0.000182671952231427 -0.000182671952229462 -7.71310807827427e-05
90 1 Cu                  0.5                0.375                0.375 -1.23273787011602e-16 4.48669964028814e-16 2.30555591979043e-16
91 1 Cu                0.625                 0.25                0.375 0.000182671952231389 -7.71310807826733e-05 -0.000182671952229594
92 1 Cu                 0.75                 0.25                 0.25 -0.00301438870998876  0.00301438870998723  0.00301438870998694
93 1 Cu                0.875                0.375                 0.25 -0.00163958225606652  0.00283924156153381  0.00124968894767799
94 1 Cu                 0.75                0.375                0.375 7.71310807810809e-05 -0.000182671952229461 -0.000182671952229757
95 1 Cu                0.875                 0.25                0.375 -0.00163958225606687  0.00124968894767822   0.0028392415615336
96 1 Cu                    0                  0.5                 0.25 -9.0205620750794e-16 -3.27862736959617e-16 -0.000463206688163794
97 1 Cu                0.125                0.625                 0.25  0.00163958225606807 -0.00283924156153232  0.00124968894767833
98 1 Cu                    0                0.625                0.375 -6.66133814775094e-16 0.000553632079036104 -0.000553632079034642
99 1 Cu                0.125                  0.5                0.375 -3.16120623669661e-05 -1.70870262383715e-16 -0.000212742196585635
100 1 Cu                 0.25                  0.5                 0.25 -2.82659139783162e-05 1.30104260698261e-17 -2.82659139783825e-05
101 1 Cu                0.375                0.625                 0.25 -0.000182671952229433 0.000182671952231396 -7.71310807825658e-05
102 1 Cu                 0.25                0.625                0.375 -7.71310807825068e-05 0.000182671952231419 -0.000182671952229649
103 1 Cu                0.375                  0.5                0.375 4.45661303000167e-16 2.31477163825655e-16 1.85832252364015e-16
104 1 Cu                  0.5                  0.5                 0.25 -3.47541006390228e-16 -1.29453739394769e-16 -3.43475248243408e-16
105 1 Cu                0.625                0.625                 0.25 0.000182671952230681 0.000182671952230616 -7.7131080782538e-05
106 1 Cu                  0.5                0.625                0.375 -5.13532358997759e-16 1.04256880906206e-15 6.39679281766448e-17
107 1 Cu                0.625                  0.5                0.375 1.01828268039839e-15 -2.28766658394441e-16 2.57389595748059e-16
108 1 Cu                 0.75                  0.5                 0.25 2.82659139769145e-05 -6.80011602582908e-16 -2.82659139785972e-05
109 1 Cu                0.875                0.625                 0.25   -0.001639582256067  -0.0028392415615325  0.00124968894767818
110 1 Cu                 0.75                0.625                0.375 7.71310807813341e-05 0.000182671952230705 -0.000182671952229731
111 1 Cu                0.875                  0.5                0.375 3.16120623678612e-05 -6.40112962635442e-16 -0.000212742196585687
112 1 Cu                    0                 0.75                 0.25 -4.38885039422132e-16   0.0195926188337916  -0.0195926188337928
113 1 Cu                0.125                0.875                 0.25  -0.0143322162058704   0.0143322162058717  -0.0171256508723575
114 1 Cu                    0                0.875                0.375 -3.67761376907083e-16 -0.000808228068888977   0.0184487764360262
115 1 Cu                0.125                 0.75                0.375    0.001639582256068 -0.00124968894767976  0.00283924156153364
116 1 Cu                 0.25                 0.75                 0.25  0.00301438870998729 -0.00301438870998868  0.00301438870998708
117 1 Cu                0.375                0.875                 0.25  0.00283924156153402 -0.00163958225606669  0.00124968894767826
118 1 Cu                 0.25                0.875                0.375  0.00124968894767822 -0.00163958225606676  0.00283924156153348
119 1 Cu                0.375                 0.75                0.375 -0.000182671952229361 7.71310807808762e-05 -0.000182671952229752
120 1 Cu                  0.5                 0.75                 0.25 -7.19523617498244e-16  2.8265913976977e-05 -2.82659139784404e-05
121 1 Cu                0.625                0.875                 0.25  -0.0028392415615325   -0.001639582256067  0.00124968894767834
122 1 Cu                  0.5                0.875                0.375 -8.05074323179111e-16 3.16120623680104e-05 -0.000212742196585923
123 1 Cu                0.625                 0.75                0.375  0.00018267195223068 7.71310807813549e-05 -0.000182671952229869
124 1 Cu                 0.75                 0.75                 0.25 -0.00301438870998862 -0.00301438870998851  0.00301438870998711
125 1 Cu                0.875                0.875                 0.25   0.0143322162058713   0.0143322162058713  -0.0171256508723572
126 1 Cu                 0.75                0.875                0.375 -0.00124968894767948 -0.00163958225606678  0.00283924156153323
127 1 Cu                0.875                 0.75                0.375 -0.00163958225606702 -0.00124968894767954  0.00283924156153337
128 1 Cu                    0                    0                  0.5 -6.21031004399697e-16 -3.05311331771918e-16 -7.18175519054398e-16
129 1 Cu                0.125                0.125                  0.5 0.000764359972431723 0.000764359972431523 -4.83120488059541e-16
130 1 Cu                    0                0.125                0.625 -8.08381139805192e-16 0.000808228068890332  -0.0184487764360252
131 1 Cu                0.125                    0                0.625 0.000808228068890544 -5.85902854011167e-16  -0.0184487764360251
132 1 Cu                 0.25                    0                  0.5 -0.00046320668816344 -5.69856661858381e-16 -2.23345647532014e-16
133 1 Cu                0.375                0.125                  0.5 -0.000212742196585545 -3.16120623671187e-05 -2.21177243187043e-16
134 1 Cu                 0.25                0.125                0.625  0.00124968894767847  0.00163958225606792 -0.00283924156153216
135 1 Cu                0.375                    0                0.625 -0.00055363207903478 -5.10008701937181e-16 0.000553632079035971
136 1 Cu                  0.5                    0                  0.5 -5.08545029004326e-16 -5.23886489744996e-16 -4.26741975090295e-16
137 1 Cu                0.625                0.125                  0.5 0.000212742196587038 -3.16120623667724e-05 -3.21032263272958e-16
138 1 Cu                  0.5                0.125                0.625 -3.79958651347545e-16 -3.16120623666503e-05 0.000212742196586927
139 1 Cu                0.625                    0                0.625 0.000553632079035705    1.49619899803e-16 0.000553632079035558
140 1 Cu                 0.75                    0                  0.5 0.000463206688162278 -2.98372437868011e-16 -5.58580959264532e-16
141 1 Cu                0.875                0.125                  0.5 -0.000764359972430999 0.000764359972431662 -1.17961196366423e-16
142 1 Cu                 0.75                0.125                0.625 -0.00124968894767961  0.00163958225606792 -0.00283924156153276
143 1 Cu                0.875                    0                0.625 -0.000808228068889111 -1.6306400674182e-16  -0.0184487764360257
144 1 Cu                    0                 0.25                  0.5 -8.29197821516914e-16 -0.000463206688163784 -1.2490009027033e-16
145 1 Cu                0.125                0.375                  0.5 -3.16120623670528e-05 -0.00021274219658521 3.29597460435593e-17
146 1 Cu                    0                0.375                0.625 -6.66133814775094e-16 -0.00055363207903448 0.000553632079035811
147 1 Cu                0.125                 0.25                0.625  0.00163958225606814  0.00124968894767828 -0.00283924156153203
148 1 Cu                 0.25                 0.25                  0.5 -2.82659139782208e-05 -2.82659139784853e-05 -1.26851654180804e-16
149 1 Cu                0.375                0.375                  0.5 3.94270120024354e-16 5.34836931687099e-16 3.07154475465143e-16
150 1 Cu                 0.25                0.375                0.625 -7.71310807822952e-05 -0.00018267195222941 0.000182671952231244
151 1 Cu                0.375                 0.25                0.625 -0.000182671952229401 -7.71310807822761e-05 0.000182671952231268
152 1 Cu                  0.5                 0.25                  0.5 -3.24176449573166e-16 -2.13370987545147e-16 -1.16876994193937e-16
153 1 Cu                0.625                0.375                  0.5 1.27415439310496e-15 4.61219604175334e-16 4.78133158066107e-17
154 1 Cu                  0.5                0.375                0.625 -4.01751115014504e-16 2.40882617671967e-16 8.10441123932915e-16
155 1 Cu                0.625                 0.25                0.625  0.00018267195223084 -7.71310807823403e-05 0.000182671952230748
156 1 Cu                 0.75                 0.25                  0.5 2.82659139769353e-05 -2.82659139782854e-05 -1.27502175484295e-16
157 1 Cu                0.875                0.375                  0.5 3.16120623676669e-05 -0.000212742196585434 3.81639164714898e-17
158 1 Cu                 0.75                0.375                0.625 7.71310807811607e-05 -0.000182671952229639 0.000182671952230516
159 1 Cu                0.875                 0.25                0.625 -0.00163958225606707  0.00124968894767856 -0.00283924156153274
160 1 Cu                    0                  0.5                  0.5 -7.35522753814166e-16 -4.9960036108132e-16 -3.33066907387547e-16
161 1 Cu                0.125                0.625                  0.5 -3.16120623665081e-05 0.000212742196587184 -3.84241249928863e-16
162 1 Cu                    0                0.625                0.625 -9.36750677027476e-17 0.000553632079035585 0.000553632079035435
163 1 Cu                0.125                  0.5                0.625 -3.16120623666399e-05 -4.03323208164608e-16 0.000212742196587082
164 1 Cu                 0.25                  0.5                  0.5 -1.54390389361936e-16 -1.38561037643647e-16 -4.90059381963448e-17
165 1 Cu                0.375                0.625                  0.5 2.56847494661816e-16 1.24477251423061e-15 -9.26992857475106e-17
166 1 Cu                 0.25                0.625                0.625 -7.71310807824201e-05 0.000182671952231011 0.000182671952230755
167 1 Cu                0.375                  0.5                0.625 2.10768902331182e-16 -5.7365136946208e-16 8.51640806487364e-16
168 1 Cu                  0.5                  0.5                  0.5 -3.33500588256541e-16 -3.9942008034366e-16 -1.17527515497429e-16
169 1 Cu                0.625                0.625                  0.5 6.45208712846124e-16 6.26641750642309e-16 -6.16043674406264e-16
170 1 Cu                  0.5                0.625                0.625 -8.17759488597192e-16 6.89173110940411e-16 5.29632761259169e-16
171 1 Cu                0.625                  0.5                0.625 7.59212571282974e-16 -8.46816106819803e-16   6.460489695298e-16
172 1 Cu                 0.75                  0.5                  0.5 -1.06165076729781e-15 -6.86950496486816e-16 -1.56125112837913e-16
173 1 Cu                0.875                0.625                  0.5  3.1612062367627e-05 0.000212742196586582 -4.23272528138341e-16
174 1 Cu                 0.75                0.625                0.625 7.71310807814798e-05 0.000182671952230284 0.000182671952230167
175 1 Cu                0.875                  0.5                0.625 3.16120623677658e-05 -9.43689570931383e-16 0.000212742196586286
176 1 Cu                    0                 0.75                  0.5 -4.8919202022546e-16 0.000463206688162132 -6.45317133063372e-16
177 1 Cu                0.125                0.875                  0.5 0.000764359972431981 -0.000764359972431124 -2.86229373536173e-16
178 1 Cu                    0                0.875                0.625 -3.36536354339501e-16 -0.000808228068889215  -0.0184487764360256
179 1 Cu                0.125                 0.75                0.625  0.00163958225606824 -0.00124968894767956 -0.00283924156153281
180 1 Cu                 0.25                 0.75                  0.5 -2.8265913978193e-05 2.82659139766986e-05 -1.30971622436249e-16
181 1 Cu                0.375                0.875                  0.5 -0.000212742196585679 3.16120623676773e-05 -1.76941794549634e-16
182 1 Cu                 0.25                0.875                0.625  0.00124968894767866 -0.00163958225606721 -0.00283924156153286
183 1 Cu                0.375                 0.75                0.625 -0.000182671952229829 7.71310807812023e-05 0.000182671952230501
184 1 Cu                  0.5                 0.75                  0.5 -7.58074159001865e-16 -1.06858966120171e-15 -2.13370987545147e-16
185 1 Cu                0.625                0.875                  0.5   0.0002127421965866 3.16120623676395e-05 -4.76398434590131e-16
186 1 Cu                  0.5                0.875                0.625 -8.97339928057628e-16 3.16120623677059e-05 0.000212742196586281
187 1 Cu                0.625                 0.75                0.625 0.000182671952230426 7.71310807813068e-05  0.00018267195223018
188 1 Cu                 0.75                 0.75                  0.5  2.8265913977199e-05 2.82659139771158e-05 -3.94649590784724e-16
189 1 Cu                0.875                0.875                  0.5 -0.000764359972430909 -0.00076435997243068 -3.78169717762944e-16
190 1 Cu                 0.75                0.875                0.625 -0.00124968894767916 -0.00163958225606655 -0.00283924156153316
191 1 Cu                0.875                 0.75                0.625 -0.00163958225606682  -0.0012496889476794 -0.00283924156153326
192 1 Cu                    0                    0                 0.75 -4.19803081186387e-16 -4.71844785465692e-16   -0.103641175257138
193 1 Cu                0.125                0.125                 0.75  -0.0143322162058705  -0.0143322162058704   0.0171256508723561
194 1 Cu                    0                0.125                0.875 -4.96130914129367e-16  -0.0441756695578763   0.0441756695578776
195 1 Cu                0.125                    0                0.875  -0.0441756695578763 -5.30825383648903e-16   0.0441756695578775
196 1 Cu                 0.25                    0                 0.75  -0.0195926188337926 -6.60062282609175e-16   0.0195926188337911
197 1 Cu                0.375                0.125                 0.75  0.00283924156153382  0.00163958225606811 -0.00124968894767994
198 1 Cu                 0.25                0.125                0.875  -0.0171256508723574  -0.0143322162058703   0.0143322162058717
199 1 Cu                0.375                    0                0.875   0.0184487764360262 -7.97972798949331e-16 -0.00080822806888892
200 1 Cu                  0.5                    0                 0.75 -8.70885395048981e-16 -6.1409211049579e-16 0.000463206688162063
201 1 Cu                0.625                0.125                 0.75 -0.00283924156153255  0.00163958225606812 -0.00124968894767954
202 1 Cu                  0.5                0.125                0.875 -2.15610081384031e-16 0.000764359972432113 -0.000764359972430909
203 1 Cu                0.625                    0                0.875  -0.0184487764360255 -1.09504419421036e-16 -0.000808228068888981
204 1 Cu                 0.75                    0                 0.75   0.0195926188337915 -1.90819582357449e-16   0.0195926188337913
205 1 Cu                0.875                0.125                 0.75   0.0143322162058714  -0.0143322162058704   0.0171256508723562
206 1 Cu                 0.75                0.125                0.875   0.0171256508723563  -0.0143322162058702   0.0143322162058716
207 1 Cu                0.875                    0                0.875   0.0441756695578774  -1.196959198424e-16   0.0441756695578776
208 1 Cu                    0                 0.25                 0.75 -7.21644966006352e-16  -0.0195926188337926    0.019592618833791
209 1 Cu                0.125                0.375                 0.75  0.00163958225606807  0.00283924156153394 -0.00124968894768004
210 1 Cu                    0                0.375                0.875 -6.17561557447743e-16   0.0184487764360264 -0.000808228068888868
211 1 Cu                0.125                 0.25                0.875  -0.0143322162058704  -0.0171256508723576   0.0143322162058718
212 1 Cu                 0.25                 0.25                 0.75  0.00301438870998741   0.0030143887099873 -0.00301438870998908
213 1 Cu                0.375                0.375                 0.75 -0.00018267195222952 -0.000182671952229473 7.71310807811676e-05
214 1 Cu                 0.25                0.375                0.875  0.00124968894767853  0.00283924156153388 -0.00163958225606674
215 1 Cu                0.375                 0.25                0.875  0.00283924156153376  0.00124968894767844 -0.00163958225606685
216 1 Cu                  0.5                 0.25                 0.75 -4.60037146998007e-16 -2.82659139781514e-05  2.8265913976866e-05
217 1 Cu                0.625                0.375                 0.75 0.000182671952230793 -0.000182671952229806  7.7131080781152e-05
218 1 Cu                  0.5                0.375                0.875 -5.52997318076232e-16 -0.000212742196585591 3.16120623678378e-05
219 1 Cu                0.625                 0.25                0.875 -0.00283924156153255  0.00124968894767828 -0.00163958225606702