ITEM: TIMESTEP
149
ITEM: NUMBER OF ATOMS
107
ITEM: BOX BOUNDS pp pp pp
0.0000000000000000e+00 1.0845000000000001e+01
0.0000000000000000e+00 1.0845000000000001e+01
0.0000000000000000e+00 1.0845000000000001e+01
ITEM: ATOMS id type x y z
1 1 1.67669 1.67669 1.02837e-16
2 1 -7.45931e-17 1.67669 1.67669
3 1 1.67669 -7.62845e-16 1.67669
4 1 3.6392 -7.32731e-16 3.70574e-16
5 1 5.4225 1.81024 -6.29623e-16
6 1 3.58681 1.77982 1.77982
7 1 5.4225 -8.34131e-16 1.81024
8 1 7.2058 2.39392e-16 -2.24647e-16
9 1 9.16831 1.67669 1.30972e-16
10 1 7.25819 1.77982 1.77982
11 1 9.16831 -3.60172e-16 1.67669
12 1 -4.54498e-16 3.6392 6.85649e-16
13 1 1.81024 5.4225 -3.46511e-16
14 1 -8.96852e-16 5.4225 1.81024
15 1 1.77982 3.58681 1.77982
16 1 3.57796 3.57796 3.36645e-17
17 1 5.4225 5.4225 -6.33215e-16
18 1 3.60793 5.4225 1.80128
19 1 5.4225 3.60793 1.80128
20 1 7.26704 3.57796 -8.03285e-16
21 1 9.03476 5.4225 -4.01046e-16
22 1 7.23707 5.4225 1.80128
23 1 9.06518 3.58681 1.77982
24 1 -4.51028e-16 7.2058 7.90492e-16
25 1 1.67669 9.16831 1.19154e-16
26 1 -2.87964e-16 9.16831 1.67669
27 1 1.77982 7.25819 1.77982
28 1 3.57796 7.26704 -8.82049e-16
29 1 5.4225 9.03476 -4.76534e-16
30 1 3.58681 9.06518 1.77982
31 1 5.4225 7.23707 1.80128
32 1 7.26704 7.26704 -8.82757e-16
33 1 9.16831 9.16831 6.76542e-17
34 1 7.25819 9.06518 1.77982
35 1 9.06518 7.25819 1.77982
36 1 -4.30211e-16 -9.48623e-16 3.6392
37 1 1.77982 1.77982 3.58681
38 1 -6.03684e-16 1.81024 5.4225
39 1 1.81024 -8.35703e-16 5.4225
40 1 3.57796 -8.56344e-16 3.57796
41 1 5.4225 1.80128 3.60793
42 1 3.60793 1.80128 5.4225
43 1 5.4225 -9.19973e-16 5.4225
44 1 7.26704 -5.1955e-16 3.57796
45 1 9.06518 1.77982 3.58681
46 1 7.23707 1.80128 5.4225
47 1 9.03476 -8.36462e-16 5.4225
48 1 -5.13478e-16 3.57796 3.57796
49 1 1.80128 5.4225 3.60793
50 1 -8.93383e-16 5.4225 5.4225
51 1 1.80128 3.60793 5.4225
52 1 3.60764 3.60764 3.60764
53 1 5.4225 5.4225 3.61278
54 1 3.61278 5.4225 5.4225
55 1 5.4225 3.61278 5.4225
56 1 7.23736 3.60764 3.60764
57 1 9.04372 5.4225 3.60793
58 1 7.23222 5.4225 5.4225
59 1 9.04372 3.60793 5.4225
60 1 -9.19403e-16 7.26704 3.57796
61 1 1.77982 9.06518 3.58681
62 1 -5.10009e-16 9.03476 5.4225
63 1 1.80128 7.23707 5.4225
64 1 3.60764 7.23736 3.60764
65 1 5.4225 9.04372 3.60793
66 1 3.60793 9.04372 5.4225
67 1 5.4225 7.23222 5.4225
68 1 7.23736 7.23736 3.60764
69 1 9.06518 9.06518 3.58681
70 1 7.23707 9.04372 5.4225
71 1 9.04372 7.23707 5.4225
72 1 -4.66641e-16 3.24827e-16 7.2058
73 1 1.77982 1.77982 7.25819
74 1 5.72459e-17 1.67669 9.16831
75 1 1.67669 -4.2067e-17 9.16831
76 1 3.57796 -8.59366e-17 7.26704
77 1 5.4225 1.80128 7.23707
78 1 3.58681 1.77982 9.06518
79 1 5.4225 -8.45312e-16 9.03476
80 1 7.26704 -1.43028e-15 7.26704
81 1 9.06518 1.77982 7.25819
82 1 7.25819 1.77982 9.06518
83 1 9.16831 1.76508e-16 9.16831
84 1 -8.36137e-16 3.57796 7.26704
85 1 1.80128 5.4225 7.23707
86 1 -8.18789e-16 5.4225 9.03476
87 1 1.77982 3.58681 9.06518
88 1 3.60764 3.60764 7.23736
89 1 5.4225 5.4225 7.23222
90 1 3.60793 5.4225 9.04372
91 1 5.4225 3.60793 9.04372
92 1 7.23736 3.60764 7.23736
93 1 9.04372 5.4225 7.23707
94 1 7.23707 5.4225 9.04372
95 1 9.06518 3.58681 9.06518
96 1 3.29597e-17 7.26704 7.26704
97 1 1.77982 9.06518 7.25819
98 1 1.26635e-16 9.16831 9.16831
99 1 1.77982 7.25819 9.06518
100 1 3.60764 7.23736 7.23736
101 1 5.4225 9.04372 7.23707
102 1 3.58681 9.06518 9.06518
103 1 5.4225 7.23707 9.04372
104 1 7.23736 7.23736 7.23736
105 1 9.06518 9.06518 7.25819
106 1 7.25819 9.06518 9.06518
107 1 9.06518 7.25819 9.06518
