ITEM: TIMESTEP
89
ITEM: NUMBER OF ATOMS
107
ITEM: BOX BOUNDS pp pp pp
0.0000000000000000e+00 1.0845000000000001e+01
0.0000000000000000e+00 1.0845000000000001e+01
0.0000000000000000e+00 1.0845000000000001e+01
ITEM: ATOMS id type x y z
1 1 1.67609 1.67609 -7.35604e-16
2 1 -6.9042e-16 1.67609 1.67609
3 1 1.67609 -9.0726e-16 1.67609
4 1 3.643 -1.14844e-16 -6.32734e-16
5 1 5.4225 1.81454 -6.13387e-16
6 1 3.59589 1.78613 1.78613
7 1 5.4225 -6.17155e-16 1.81454
8 1 7.202 -4.51462e-16 -2.49366e-18
9 1 9.16891 1.67609 -6.06503e-16
10 1 7.24911 1.78613 1.78613
11 1 9.16891 -7.99708e-16 1.67609
12 1 -9.71445e-17 3.643 -5.57714e-16
13 1 1.81454 5.4225 -5.78869e-16
14 1 -4.85723e-17 5.4225 1.81454
15 1 1.78613 3.59589 1.78613
16 1 3.58365 3.58365 -8.77662e-17
17 1 5.4225 5.4225 -6.21776e-16
18 1 3.6153 5.4225 1.80683
19 1 5.4225 3.6153 1.80683
20 1 7.26135 3.58365 3.44776e-17
21 1 9.03046 5.4225 -6.17778e-16
22 1 7.2297 5.4225 1.80683
23 1 9.05887 3.59589 1.78613
24 1 -2.04697e-16 7.202 -7.9472e-16
25 1 1.67609 9.16891 -6.37077e-16
26 1 -6.26235e-16 9.16891 1.67609
27 1 1.78613 7.24911 1.78613
28 1 3.58365 7.26135 -7.70129e-16
29 1 5.4225 9.03046 1.01969e-16
30 1 3.59589 9.05887 1.78613
31 1 5.4225 7.2297 1.80683
32 1 7.26135 7.26135 -4.23273e-16
33 1 9.16891 9.16891 -3.91614e-16
34 1 7.24911 9.05887 1.78613
35 1 9.05887 7.24911 1.78613
36 1 -7.28584e-17 -5.8818e-16 3.643
37 1 1.78613 1.78613 3.59589
38 1 -1.80411e-16 1.81454 5.4225
39 1 1.81454 -1.30104e-18 5.4225
40 1 3.58365 -4.45526e-16 3.58365
41 1 5.4225 1.80683 3.6153
42 1 3.6153 1.80683 5.4225
43 1 5.4225 -6.83535e-16 5.4225
44 1 7.26135 -5.63785e-17 3.58365
45 1 9.05887 1.78613 3.59589
46 1 7.2297 1.80683 5.4225
47 1 9.03046 1.36718e-16 5.4225
48 1 -7.63278e-17 3.58365 3.58365
49 1 1.80683 5.4225 3.6153
50 1 -6.69603e-16 5.4225 5.4225
51 1 1.80683 3.6153 5.4225
52 1 3.61404 3.61404 3.61404
53 1 5.4225 5.4225 3.61809
54 1 3.61809 5.4225 5.4225
55 1 5.4225 3.61809 5.4225
56 1 7.23096 3.61404 3.61404
57 1 9.03817 5.4225 3.6153
58 1 7.22691 5.4225 5.4225
59 1 9.03817 3.6153 5.4225
60 1 -1.11022e-16 7.26135 3.58365
61 1 1.78613 9.05887 3.59589
62 1 -2.87964e-16 9.03046 5.4225
63 1 1.80683 7.2297 5.4225
64 1 3.61404 7.23096 3.61404
65 1 5.4225 9.03817 3.6153
66 1 3.6153 9.03817 5.4225
67 1 5.4225 7.22691 5.4225
68 1 7.23096 7.23096 3.61404
69 1 9.05887 9.05887 3.59589
70 1 7.2297 9.03817 5.4225
71 1 9.03817 7.2297 5.4225
72 1 -3.67761e-16 -3.14961e-16 7.202
73 1 1.78613 1.78613 7.24911
74 1 -9.83588e-16 1.67609 9.16891
75 1 1.67609 -9.8142e-16 9.16891
76 1 3.58365 -2.20201e-16 7.26135
77 1 5.4225 1.80683 7.2297
78 1 3.59589 1.78613 9.05887
79 1 5.4225 -2.65155e-16 9.03046
80 1 7.26135 -2.47198e-16 7.26135
81 1 9.05887 1.78613 7.24911
82 1 7.24911 1.78613 9.05887
83 1 9.16891 -8.85576e-16 9.16891
84 1 -5.0307e-16 3.58365 7.26135
85 1 1.80683 5.4225 7.2297
86 1 -4.89192e-16 5.4225 9.03046
87 1 1.78613 3.59589 9.05887
88 1 3.61404 3.61404 7.23096
89 1 5.4225 5.4225 7.22691
90 1 3.6153 5.4225 9.03817
91 1 5.4225 3.6153 9.03817
92 1 7.23096 3.61404 7.23096
93 1 9.03817 5.4225 7.2297
94 1 7.2297 5.4225 9.03817
95 1 9.05887 3.59589 9.05887
96 1 -3.92048e-16 7.26135 7.26135
97 1 1.78613 9.05887 7.24911
98 1 -9.19403e-16 9.16891 9.16891
99 1 1.78613 7.24911 9.05887
100 1 3.61404 7.23096 7.23096
101 1 5.4225 9.03817 7.2297
102 1 3.59589 9.05887 9.05887
103 1 5.4225 7.2297 9.03817
104 1 7.23096 7.23096 7.23096
105 1 9.05887 9.05887 7.24911
106 1 7.24911 9.05887 9.05887
107 1 9.05887 7.24911 9.05887
