ITEM: TIMESTEP
100
ITEM: NUMBER OF ATOMS
107
ITEM: BOX BOUNDS pp pp pp
0.0000000000000000e+00 1.0845000000000001e+01
0.0000000000000000e+00 1.0845000000000001e+01
0.0000000000000000e+00 1.0845000000000001e+01
ITEM: ATOMS id type x y z
1 1 1.67732 1.67732 -1.14654e-17
2 1 -2.65413e-16 1.67732 1.67732
3 1 1.67732 -5.76362e-16 1.67732
4 1 3.64071 -7.51786e-16 -6.50243e-16
5 1 5.4225 1.81142 -5.69924e-16
6 1 3.58756 1.78063 1.78063
7 1 5.4225 -7.22851e-16 1.81142
8 1 7.20429 -8.23994e-17 -5.77771e-16
9 1 9.16768 1.67732 -3.38705e-16
10 1 7.25744 1.78063 1.78063
11 1 9.16768 -5.35162e-16 1.67732
12 1 -5.08274e-16 3.64071 -1.01048e-16
13 1 1.81142 5.4225 -3.51783e-16
14 1 -7.37257e-16 5.4225 1.81142
15 1 1.78063 3.58756 1.78063
16 1 3.5784 3.5784 -6.99554e-16
17 1 5.4225 5.4225 -3.69252e-16
18 1 3.60871 5.4225 1.80201
19 1 5.4225 3.60871 1.80201
20 1 7.2666 3.5784 -8.35595e-16
21 1 9.03358 5.4225 -4.06576e-17
22 1 7.23629 5.4225 1.80201
23 1 9.06437 3.58756 1.78063
24 1 -5.27356e-16 7.20429 -9.60061e-16
25 1 1.67732 9.16768 -4.50161e-16
26 1 -2.77556e-16 9.16768 1.67732
27 1 1.78063 7.25744 1.78063
28 1 3.5784 7.2666 -9.67552e-16
29 1 5.4225 9.03358 -5.67688e-16
30 1 3.58756 9.06437 1.78063
31 1 5.4225 7.23629 1.80201
32 1 7.2666 7.2666 -6.42823e-16
33 1 9.16768 9.16768 -3.19189e-16
34 1 7.25744 9.06437 1.78063
35 1 9.06437 7.25744 1.78063
36 1 -6.08888e-16 -7.40239e-16 3.64071
37 1 1.78063 1.78063 3.58756
38 1 -4.12864e-16 1.81142 5.4225
39 1 1.81142 -8.04044e-16 5.4225
40 1 3.5784 -8.76212e-16 3.5784
41 1 5.4225 1.80201 3.60871
42 1 3.60871 1.80201 5.4225
43 1 5.4225 -6.49451e-16 5.4225
44 1 7.2666 -1.00094e-15 3.5784
45 1 9.06437 1.78063 3.58756
46 1 7.23629 1.80201 5.4225
47 1 9.03358 -6.43799e-16 5.4225
48 1 -8.27463e-16 3.5784 3.5784
49 1 1.80201 5.4225 3.60871
50 1 -6.5746e-16 5.4225 5.4225
51 1 1.80201 3.60871 5.4225
52 1 3.60852 3.60852 3.60852
53 1 5.4225 5.4225 3.6136
54 1 3.6136 5.4225 5.4225
55 1 5.4225 3.6136 5.4225
56 1 7.23648 3.60852 3.60852
57 1 9.04299 5.4225 3.60871
58 1 7.2314 5.4225 5.4225
59 1 9.04299 3.60871 5.4225
60 1 -7.99708e-16 7.2666 3.5784
61 1 1.78063 9.06437 3.58756
62 1 -6.6093e-16 9.03358 5.4225
63 1 1.80201 7.23629 5.4225
64 1 3.60852 7.23648 3.60852
65 1 5.4225 9.04299 3.60871
66 1 3.60871 9.04299 5.4225
67 1 5.4225 7.2314 5.4225
68 1 7.23648 7.23648 3.60852
69 1 9.06437 9.06437 3.58756
70 1 7.23629 9.04299 5.4225
71 1 9.04299 7.23629 5.4225
72 1 -5.72459e-16 -8.6064e-16 7.20429
73 1 1.78063 1.78063 7.25744
74 1 2.18575e-16 1.67732 9.16768
75 1 1.67732 -3.52583e-16 9.16768
76 1 3.5784 -7.08025e-16 7.2666
77 1 5.4225 1.80201 7.23629
78 1 3.58756 1.78063 9.06437
79 1 5.4225 -3.30438e-16 9.03358
80 1 7.2666 -9.18102e-16 7.2666
81 1 9.06437 1.78063 7.25744
82 1 7.25744 1.78063 9.06437
83 1 9.16768 -2.62377e-16 9.16768
84 1 -8.20524e-16 3.5784 7.2666
85 1 1.80201 5.4225 7.23629
86 1 -4.87457e-16 5.4225 9.03358
87 1 1.78063 3.58756 9.06437
88 1 3.60852 3.60852 7.23648
89 1 5.4225 5.4225 7.2314
90 1 3.60871 5.4225 9.04299
91 1 5.4225 3.60871 9.04299
92 1 7.23648 3.60852 7.23648
93 1 9.04299 5.4225 7.23629
94 1 7.23629 5.4225 9.04299
95 1 9.06437 3.58756 9.06437
96 1 -7.80626e-16 7.2666 7.2666
97 1 1.78063 9.06437 7.25744
98 1 -4.35416e-16 9.16768 9.16768
99 1 1.78063 7.25744 9.06437
100 1 3.60852 7.23648 7.23648
101 1 5.4225 9.04299 7.23629
102 1 3.58756 9.06437 9.06437
103 1 5.4225 7.23629 9.04299
104 1 7.23648 7.23648 7.23648
105 1 9.06437 9.06437 7.25744
106 1 7.25744 9.06437 9.06437
107 1 9.06437 7.25744 9.06437
