ITEM: TIMESTEP
200
ITEM: NUMBER OF ATOMS
107
ITEM: BOX BOUNDS pp pp pp
0.0000000000000000e+00 1.0845000000000001e+01
0.0000000000000000e+00 1.0845000000000001e+01
0.0000000000000000e+00 1.0845000000000001e+01
ITEM: ATOMS id type x y z
1 1 1.23536 1.24183 -0.00960921
2 1 0.122243 1.29422 1.2302
3 1 1.32787 0.0972251 1.23278
4 1 2.47925 0.104738 -0.0124537
5 1 3.72167 1.39785 10.9052
6 1 2.48217 1.30238 1.17282
7 1 3.722 0.139443 1.24336
8 1 8.57437 0.108552 0.0462915
9 1 9.8225 1.21406 0.0123592
10 1 8.53974 1.28508 1.25894
11 1 9.77566 0.118065 1.25701
12 1 0.101675 2.47499 -0.0122666
13 1 1.33249 3.75296 0.0100614
14 1 0.166314 3.73976 1.22742
15 1 1.32001 2.51272 1.18084
16 1 2.42203 2.46838 -0.0944984
17 1 3.46682 3.45771 11.1552
18 1 1.27667 7.27193 0.0634386
19 1 7.27484 1.32021 0.0506982
20 1 8.54563 2.50079 10.8562
21 1 9.77375 3.73165 10.8633
22 1 8.57105 3.69102 1.23997
23 1 9.78393 2.47888 1.20254
24 1 0.119356 8.57841 0.0627614
25 1 1.24424 9.7805 -0.00489396
26 1 0.127123 9.77363 1.23716
27 1 1.32323 8.54055 1.26164
28 1 2.50398 8.49921 -0.0368262
29 1 3.74457 9.73425 -0.0230125
30 1 2.49329 9.72801 1.19159
31 1 3.69259 8.53313 1.19868
32 1 8.57763 8.58863 0.0756926
33 1 9.8557 9.81735 0.0290197
34 1 8.54128 9.79665 1.26388
35 1 9.79014 8.59132 1.26944
36 1 0.160102 0.127016 2.52179
37 1 1.3373 1.31196 2.44068
38 1 0.239366 1.31382 3.70666
39 1 1.38699 0.227691 3.71237
40 1 2.56132 0.128038 2.44304
41 1 7.27829 0.134652 1.28964
42 1 1.32572 0.0908393 7.1168
43 1 2.61236 10.5869 3.80294
44 1 8.53089 0.12751 2.54005
45 1 9.77432 1.31442 2.48218
46 1 9.79423 0.191092 3.78749
47 1 10.4295 0.802896 5.38082
48 1 0.168008 2.54759 2.43125
49 1 0.10517 7.33446 1.34202
50 1 10.3555 2.50389 3.82713
51 1 0.0988293 1.33924 7.10561
52 1 2.58959 2.54322 2.37937
53 1 5.51772 5.5005 3.95508
54 1 4.03897 5.46082 5.53336
55 1 5.47347 4.04466 5.51164
56 1 8.53013 2.47713 2.49006
57 1 9.80896 3.6769 2.40768
58 1 6.8466 5.22297 5.21457
59 1 10.077 2.7472 3.67175
60 1 0.129405 8.57793 2.55518
61 1 1.33281 9.76341 2.50999
62 1 0.803461 10.4302 5.35762
63 1 0.174989 9.80567 3.79596
64 1 2.49635 8.53978 2.52372
65 1 3.68318 9.7493 2.40931
66 1 2.68081 9.97751 3.70408
67 1 5.22775 6.85089 5.22225
68 1 8.62652 8.59573 2.50588
69 1 9.78692 9.79742 2.5473
70 1 9.73733 0.119711 7.14762
71 1 0.103611 9.73471 7.15697
72 1 0.0992269 0.0896147 8.37349
73 1 1.27377 1.29832 8.3541
74 1 0.0742846 1.27818 9.64983
75 1 1.28008 0.0691175 9.62782
76 1 2.54225 0.110155 8.35581
77 1 3.74754 0.204479 9.62434
78 1 2.44581 1.28343 9.60724
79 1 4.92256 0.165964 10.9152
80 1 8.51015 0.10353 8.4257
81 1 9.72599 1.30786 8.39909
82 1 8.54755 1.28621 9.66604
83 1 9.78119 0.0808653 9.67274
84 1 0.0518846 2.54548 8.38117
85 1 0.0667498 3.75264 9.64692
86 1 0.0726129 4.99001 10.8996
87 1 1.22902 2.50503 9.59466
88 1 2.45462 2.48882 8.32096
89 1 5.22657 5.23221 6.82886
90 1 2.43407 3.67831 9.53774
91 1 3.72722 2.35314 9.51277
92 1 8.53965 2.53497 8.50041
93 1 0.100577 7.29532 9.64507
94 1 9.77863 7.32675 0.0999749
95 1 9.78502 2.51808 9.67148
96 1 0.107979 8.52902 8.41833
97 1 1.31969 9.73618 8.38423
98 1 0.102672 9.77327 9.64548
99 1 1.32544 8.52416 9.63099
100 1 2.54325 8.51231 8.4522
101 1 7.28486 0.104064 9.68809
102 1 2.53068 9.76873 9.63582
103 1 7.29072 9.74805 0.0923792
104 1 8.53566 8.54848 8.51695
105 1 9.73953 9.74229 8.41467
106 1 8.55096 9.75373 9.69222
107 1 9.7569 8.57743 9.69789
