ITEM: TIMESTEP
1
ITEM: NUMBER OF ATOMS
108
ITEM: BOX BOUNDS pp pp pp
0.0000000000000000e+00 1.0845000000000001e+01
0.0000000000000000e+00 1.0845000000000001e+01
0.0000000000000000e+00 1.0845000000000001e+01
ITEM: ATOMS id type x y z
1 1 -3.04456e-16 -1.3502e-16 -9.26605e-17
2 1 1.8075 1.8075 -5.48021e-16
3 1 -5.57287e-16 1.8075 1.8075
4 1 1.8075 -5.20223e-16 1.8075
5 1 3.615 -2.75003e-16 -3.3577e-16
6 1 5.4225 1.8075 -4.62806e-16
7 1 3.615 1.8075 1.8075
8 1 5.4225 -4.6231e-16 1.8075
9 1 7.23 -2.3827e-16 -1.8135e-16
10 1 9.0375 1.8075 -2.05177e-16
11 1 7.23 1.8075 1.8075
12 1 9.0375 -1.74731e-16 1.8075
13 1 -2.72025e-16 3.615 -3.13722e-16
14 1 1.8075 5.4225 -2.48363e-16
15 1 -3.94469e-16 5.4225 1.8075
16 1 1.8075 3.615 1.8075
17 1 3.615 3.615 -3.70063e-16
18 1 5.4225 5.4225 -4.93086e-17
19 1 3.615 5.4225 1.8075
20 1 5.4225 3.615 1.8075
21 1 7.23 3.615 -2.46212e-16
22 1 9.0375 5.4225 -2.64744e-18
23 1 7.23 5.4225 1.8075
24 1 9.0375 3.615 1.8075
25 1 -1.62818e-16 7.23 -1.0325e-16
26 1 1.8075 9.0375 -1.72084e-16
27 1 -3.74613e-16 9.0375 1.8075
28 1 1.8075 7.23 1.8075
29 1 3.615 7.23 -1.86593e-16
30 1 5.4225 9.0375 -1.1384e-16
31 1 3.615 9.0375 1.8075
32 1 5.4225 7.23 1.8075
33 1 7.23 7.23 -1.98558e-16
34 1 9.0375 9.0375 8.73656e-17
35 1 7.23 9.0375 1.8075
36 1 9.0375 7.23 1.8075
37 1 -4.05059e-16 -3.28283e-16 3.615
38 1 1.8075 1.8075 3.615
39 1 -4.16972e-16 1.8075 5.4225
40 1 1.8075 -3.56081e-16 5.4225
41 1 3.615 -4.62972e-16 3.615
42 1 5.4225 1.8075 3.615
43 1 3.615 1.8075 5.4225
44 1 5.4225 -3.15459e-16 5.4225
45 1 7.23 -2.64744e-16 3.615
46 1 9.0375 1.8075 3.615
47 1 7.23 1.8075 5.4225
48 1 9.0375 -6.61861e-18 5.4225
49 1 -3.89174e-16 3.615 3.615
50 1 1.8075 5.4225 3.615
51 1 -2.5159e-16 5.4225 5.4225
52 1 1.8075 3.615 5.4225
53 1 3.615 3.615 3.615
54 1 5.4225 5.4225 3.615
55 1 3.615 5.4225 5.4225
56 1 5.4225 3.615 5.4225
57 1 7.23 3.615 3.615
58 1 9.0375 5.4225 3.615
59 1 7.23 5.4225 5.4225
60 1 9.0375 3.615 5.4225
61 1 -3.15046e-16 7.23 3.615
62 1 1.8075 9.0375 3.615
63 1 -1.78702e-16 9.0375 5.4225
64 1 1.8075 7.23 5.4225
65 1 3.615 7.23 3.615
66 1 5.4225 9.0375 3.615
67 1 3.615 9.0375 5.4225
68 1 5.4225 7.23 5.4225
69 1 7.23 7.23 3.615
70 1 9.0375 9.0375 3.615
71 1 7.23 9.0375 5.4225
72 1 9.0375 7.23 5.4225
73 1 -3.07103e-16 -8.20707e-17 7.23
74 1 1.8075 1.8075 7.23
75 1 -3.49462e-16 1.8075 9.0375
76 1 1.8075 -2.11795e-16 9.0375
77 1 3.615 -3.167e-16 7.23
78 1 5.4225 1.8075 7.23
79 1 3.615 1.8075 9.0375
80 1 5.4225 -1.29311e-16 9.0375
81 1 7.23 -1.91278e-16 7.23
82 1 9.0375 1.8075 7.23
83 1 7.23 1.8075 9.0375
84 1 9.0375 -7.28047e-18 9.0375
85 1 -1.80026e-16 3.615 7.23
86 1 1.8075 5.4225 7.23
87 1 -8.20707e-17 5.4225 9.0375
88 1 1.8075 3.615 9.0375
89 1 3.615 3.615 7.23
90 1 5.4225 5.4225 7.23
91 1 3.615 5.4225 9.0375
92 1 5.4225 3.615 9.0375
93 1 7.23 3.615 7.23
94 1 9.0375 5.4225 7.23
95 1 7.23 5.4225 9.0375
96 1 9.0375 3.615 9.0375
97 1 -1.44286e-16 7.23 7.23
98 1 1.8075 9.0375 7.23
99 1 -7.94233e-17 9.0375 9.0375
100 1 1.8075 7.23 9.0375
101 1 3.615 7.23 7.23
102 1 5.4225 9.0375 7.23
103 1 3.615 9.0375 9.0375
104 1 5.4225 7.23 9.0375
105 1 7.23 7.23 7.23
106 1 9.0375 9.0375 7.23
107 1 7.23 9.0375 9.0375
108 1 9.0375 7.23 9.0375
