ITEM: TIMESTEP
0
ITEM: NUMBER OF ATOMS
255
ITEM: BOX BOUNDS pp pp pp
0.0000000000000000e+00 1.4460000000000001e+01
0.0000000000000000e+00 1.4460000000000001e+01
0.0000000000000000e+00 1.4460000000000001e+01
ITEM: ATOMS id type x y z
1 1 1.8075 1.8075 0
2 1 0 1.8075 1.8075
3 1 1.8075 0 1.8075
4 1 3.615 0 0
5 1 5.4225 1.8075 0
6 1 3.615 1.8075 1.8075
7 1 5.4225 0 1.8075
8 1 7.23 0 0
9 1 9.0375 1.8075 0
10 1 7.23 1.8075 1.8075
11 1 9.0375 0 1.8075
12 1 10.845 0 0
13 1 12.6525 1.8075 0
14 1 10.845 1.8075 1.8075
15 1 12.6525 0 1.8075
16 1 0 3.615 0
17 1 1.8075 5.4225 0
18 1 0 5.4225 1.8075
19 1 1.8075 3.615 1.8075
20 1 3.615 3.615 0
21 1 5.4225 5.4225 0
22 1 3.615 5.4225 1.8075
23 1 5.4225 3.615 1.8075
24 1 7.23 3.615 0
25 1 9.0375 5.4225 0
26 1 7.23 5.4225 1.8075
27 1 9.0375 3.615 1.8075
28 1 10.845 3.615 0
29 1 12.6525 5.4225 0
30 1 10.845 5.4225 1.8075
31 1 12.6525 3.615 1.8075
32 1 0 7.23 0
33 1 1.8075 9.0375 0
34 1 0 9.0375 1.8075
35 1 1.8075 7.23 1.8075
36 1 3.615 7.23 0
37 1 5.4225 9.0375 0
38 1 3.615 9.0375 1.8075
39 1 5.4225 7.23 1.8075
40 1 7.23 7.23 0
41 1 9.0375 9.0375 0
42 1 7.23 9.0375 1.8075
43 1 9.0375 7.23 1.8075
44 1 10.845 7.23 0
45 1 12.6525 9.0375 0
46 1 10.845 9.0375 1.8075
47 1 12.6525 7.23 1.8075
48 1 0 10.845 0
49 1 1.8075 12.6525 0
50 1 0 12.6525 1.8075
51 1 1.8075 10.845 1.8075
52 1 3.615 10.845 0
53 1 5.4225 12.6525 0
54 1 3.615 12.6525 1.8075
55 1 5.4225 10.845 1.8075
56 1 7.23 10.845 0
57 1 9.0375 12.6525 0
58 1 7.23 12.6525 1.8075
59 1 9.0375 10.845 1.8075
60 1 10.845 10.845 0
61 1 12.6525 12.6525 0
62 1 10.845 12.6525 1.8075
63 1 12.6525 10.845 1.8075
64 1 0 0 3.615
65 1 1.8075 1.8075 3.615
66 1 0 1.8075 5.4225
67 1 1.8075 0 5.4225
68 1 3.615 0 3.615
69 1 5.4225 1.8075 3.615
70 1 3.615 1.8075 5.4225
71 1 5.4225 0 5.4225
72 1 7.23 0 3.615
73 1 9.0375 1.8075 3.615
74 1 7.23 1.8075 5.4225
75 1 9.0375 0 5.4225
76 1 10.845 0 3.615
77 1 12.6525 1.8075 3.615
78 1 10.845 1.8075 5.4225
79 1 12.6525 0 5.4225
80 1 0 3.615 3.615
81 1 1.8075 5.4225 3.615
82 1 0 5.4225 5.4225
83 1 1.8075 3.615 5.4225
84 1 3.615 3.615 3.615
85 1 5.4225 5.4225 3.615
86 1 3.615 5.4225 5.4225
87 1 5.4225 3.615 5.4225
88 1 7.23 3.615 3.615
89 1 9.0375 5.4225 3.615
90 1 7.23 5.4225 5.4225
91 1 9.0375 3.615 5.4225
92 1 10.845 3.615 3.615
93 1 12.6525 5.4225 3.615
94 1 10.845 5.4225 5.4225
95 1 12.6525 3.615 5.4225
96 1 0 7.23 3.615
97 1 1.8075 9.0375 3.615
98 1 0 9.0375 5.4225
99 1 1.8075 7.23 5.4225
100 1 3.615 7.23 3.615
101 1 5.4225 9.0375 3.615
102 1 3.615 9.0375 5.4225
103 1 5.4225 7.23 5.4225
104 1 7.23 7.23 3.615
105 1 9.0375 9.0375 3.615
106 1 7.23 9.0375 5.4225
107 1 9.0375 7.23 5.4225
108 1 10.845 7.23 3.615
109 1 12.6525 9.0375 3.615
110 1 10.845 9.0375 5.4225
111 1 12.6525 7.23 5.4225
112 1 0 10.845 3.615
113 1 1.8075 12.6525 3.615
114 1 0 12.6525 5.4225
115 1 1.8075 10.845 5.4225
116 1 3.615 10.845 3.615
117 1 5.4225 12.6525 3.615
118 1 3.615 12.6525 5.4225
119 1 5.4225 10.845 5.4225
120 1 7.23 10.845 3.615
121 1 9.0375 12.6525 3.615
122 1 7.23 12.6525 5.4225
123 1 9.0375 10.845 5.4225
124 1 10.845 10.845 3.615
125 1 12.6525 12.6525 3.615
126 1 10.845 12.6525 5.4225
127 1 12.6525 10.845 5.4225
128 1 0 0 7.23
129 1 1.8075 1.8075 7.23
130 1 0 1.8075 9.0375
131 1 1.8075 0 9.0375
132 1 3.615 0 7.23
133 1 5.4225 1.8075 7.23
134 1 3.615 1.8075 9.0375
135 1 5.4225 0 9.0375
136 1 7.23 0 7.23
137 1 9.0375 1.8075 7.23
138 1 7.23 1.8075 9.0375
139 1 9.0375 0 9.0375
140 1 10.845 0 7.23
141 1 12.6525 1.8075 7.23
142 1 10.845 1.8075 9.0375
143 1 12.6525 0 9.0375
144 1 0 3.615 7.23
145 1 1.8075 5.4225 7.23
146 1 0 5.4225 9.0375
147 1 1.8075 3.615 9.0375
148 1 3.615 3.615 7.23
149 1 5.4225 5.4225 7.23
150 1 3.615 5.4225 9.0375
151 1 5.4225 3.615 9.0375
152 1 7.23 3.615 7.23
153 1 9.0375 5.4225 7.23
154 1 7.23 5.4225 9.0375
155 1 9.0375 3.615 9.0375
156 1 10.845 3.615 7.23
157 1 12.6525 5.4225 7.23
158 1 10.845 5.4225 9.0375
159 1 12.6525 3.615 9.0375
160 1 0 7.23 7.23
161 1 1.8075 9.0375 7.23
162 1 0 9.0375 9.0375
163 1 1.8075 7.23 9.0375
164 1 3.615 7.23 7.23
165 1 5.4225 9.0375 7.23
166 1 3.615 9.0375 9.0375
167 1 5.4225 7.23 9.0375
168 1 7.23 7.23 7.23
169 1 9.0375 9.0375 7.23
170 1 7.23 9.0375 9.0375
171 1 9.0375 7.23 9.0375
172 1 10.845 7.23 7.23
173 1 12.6525 9.0375 7.23
174 1 10.845 9.0375 9.0375
175 1 12.6525 7.23 9.0375
176 1 0 10.845 7.23
177 1 1.8075 12.6525 7.23
178 1 0 12.6525 9.0375
179 1 1.8075 10.845 9.0375
180 1 3.615 10.845 7.23
181 1 5.4225 12.6525 7.23
182 1 3.615 12.6525 9.0375
183 1 5.4225 10.845 9.0375
184 1 7.23 10.845 7.23
185 1 9.0375 12.6525 7.23
186 1 7.23 12.6525 9.0375
187 1 9.0375 10.845 9.0375
188 1 10.845 10.845 7.23
189 1 12.6525 12.6525 7.23
190 1 10.845 12.6525 9.0375
191 1 12.6525 10.845 9.0375
192 1 0 0 10.845
193 1 1.8075 1.8075 10.845
194 1 0 1.8075 12.6525
195 1 1.8075 0 12.6525
196 1 3.615 0 10.845
197 1 5.4225 1.8075 10.845
198 1 3.615 1.8075 12.6525
199 1 5.4225 0 12.6525
200 1 7.23 0 10.845
201 1 9.0375 1.8075 10.845
202 1 7.23 1.8075 12.6525
203 1 9.0375 0 12.6525
204 1 10.845 0 10.845
205 1 12.6525 1.8075 10.845
206 1 10.845 1.8075 12.6525
207 1 12.6525 0 12.6525
208 1 0 3.615 10.845
209 1 1.8075 5.4225 10.845
210 1 0 5.4225 12.6525
211 1 1.8075 3.615 12.6525
212 1 3.615 3.615 10.845
213 1 5.4225 5.4225 10.845
214 1 3.615 5.4225 12.6525
215 1 5.4225 3.615 12.6525
216 1 7.23 3.615 10.845
217 1 9.0375 5.4225 10.845
218 1 7.23 5.4225 12.6525
219 1 9.0375 3.615 12.6525
220 1 10.845 3.615 10.845
221 1 12.6525 5.4225 10.845
222 1 10.845 5.4225 12.6525
223 1 12.6525 3.615 12.6525
224 1 0 7.23 10.845
225 1 1.8075 9.0375 10.845
226 1 0 9.0375 12.6525
227 1 1.8075 7.23 12.6525
228 1 3.615 7.23 10.845
229 1 5.4225 9.0375 10.845
230 1 3.615 9.0375 12.6525
231 1 5.4225 7.23 12.6525
232 1 7.23 7.23 10.845
233 1 9.0375 9.0375 10.845
234 1 7.23 9.0375 12.6525
235 1 9.0375 7.23 12.6525
236 1 10.845 7.23 10.845
237 1 12.6525 9.0375 10.845
238 1 10.845 9.0375 12.6525
239 1 12.6525 7.23 12.6525
240 1 0 10.845 10.845
241 1 1.8075 12.6525 10.845
242 1 0 12.6525 12.6525
243 1 1.8075 10.845 12.6525
244 1 3.615 10.845 10.845
245 1 5.4225 12.6525 10.845
246 1 3.615 12.6525 12.6525
247 1 5.4225 10.845 12.6525
248 1 7.23 10.845 10.845
249 1 9.0375 12.6525 10.845
250 1 7.23 12.6525 12.6525
251 1 9.0375 10.845 12.6525
252 1 10.845 10.845 10.845
253 1 12.6525 12.6525 10.845
254 1 10.845 12.6525 12.6525
255 1 12.6525 10.845 12.6525
