ITEM: TIMESTEP
0
ITEM: NUMBER OF ATOMS
255
ITEM: BOX BOUNDS pp pp pp
0.0000000000000000e+00 1.4460000000000001e+01
0.0000000000000000e+00 1.4460000000000001e+01
0.0000000000000000e+00 1.4460000000000001e+01
ITEM: ATOMS id type element x y z fx fy fz c_energy
1 1 Cu 1.8075 1.8075 0 -0.0441757 -0.0441757 -9.02056e-17 -3.43679
2 1 Cu 0 1.8075 1.8075 -6.34909e-16 -0.0441757 -0.0441757 -3.43679
3 1 Cu 1.8075 0 1.8075 -0.0441757 -4.68375e-16 -0.0441757 -3.43679
4 1 Cu 3.615 0 0 0.103641 -8.93166e-16 -6.69766e-16 -3.52242
5 1 Cu 5.4225 1.8075 0 0.0184488 0.000808228 -6.07153e-16 -3.53998
6 1 Cu 3.615 1.8075 1.8075 -0.0171257 -0.0143322 -0.0143322 -3.55228
7 1 Cu 5.4225 0 1.8075 0.0184488 -9.61037e-16 0.000808228 -3.53998
8 1 Cu 7.23 0 0 -6.35505e-16 -7.07767e-16 -6.47052e-16 -3.53899
9 1 Cu 9.0375 1.8075 0 -0.0184488 0.000808228 -3.52583e-16 -3.53998
10 1 Cu 7.23 1.8075 1.8075 -1.83501e-16 0.00076436 0.00076436 -3.53899
11 1 Cu 9.0375 0 1.8075 -0.0184488 -4.0766e-16 0.000808228 -3.53998
12 1 Cu 10.845 0 0 -0.103641 -8.67362e-17 -3.57353e-16 -3.52242
13 1 Cu 12.6525 1.8075 0 0.0441757 -0.0441757 -2.498e-16 -3.43679
14 1 Cu 10.845 1.8075 1.8075 0.0171257 -0.0143322 -0.0143322 -3.55228
15 1 Cu 12.6525 0 1.8075 0.0441757 -1.249e-16 -0.0441757 -3.43679
16 1 Cu 0 3.615 0 -8.7777e-16 0.103641 -7.21645e-16 -3.52242
17 1 Cu 1.8075 5.4225 0 0.000808228 0.0184488 -7.97973e-16 -3.53998
18 1 Cu 0 5.4225 1.8075 -1.11716e-15 0.0184488 0.000808228 -3.53998
19 1 Cu 1.8075 3.615 1.8075 -0.0143322 -0.0171257 -0.0143322 -3.55228
20 1 Cu 3.615 3.615 0 -0.0195926 -0.0195926 -9.155e-16 -3.54372
21 1 Cu 5.4225 5.4225 0 -0.000553632 -0.000553632 -1.20737e-15 -3.53899
22 1 Cu 3.615 5.4225 1.8075 0.00124969 0.00283924 0.00163958 -3.53901
23 1 Cu 5.4225 3.615 1.8075 0.00283924 0.00124969 0.00163958 -3.53901
24 1 Cu 7.23 3.615 0 -3.58979e-16 -0.000463207 -7.14923e-16 -3.53899
25 1 Cu 9.0375 5.4225 0 0.000553632 -0.000553632 -5.96094e-16 -3.53899
26 1 Cu 7.23 5.4225 1.8075 -4.19912e-16 -0.000212742 -3.16121e-05 -3.53899
27 1 Cu 9.0375 3.615 1.8075 -0.00283924 0.00124969 0.00163958 -3.53901
28 1 Cu 10.845 3.615 0 0.0195926 -0.0195926 -3.85109e-16 -3.54372
29 1 Cu 12.6525 5.4225 0 -0.000808228 0.0184488 -4.89192e-16 -3.53998
30 1 Cu 10.845 5.4225 1.8075 -0.00124969 0.00283924 0.00163958 -3.53901
31 1 Cu 12.6525 3.615 1.8075 0.0143322 -0.0171257 -0.0143322 -3.55228
32 1 Cu 0 7.23 0 -6.66134e-16 -7.2338e-16 -6.71338e-16 -3.53899
33 1 Cu 1.8075 9.0375 0 0.000808228 -0.0184488 -5.34295e-16 -3.53998
34 1 Cu 0 9.0375 1.8075 -6.12357e-16 -0.0184488 0.000808228 -3.53998
35 1 Cu 1.8075 7.23 1.8075 0.00076436 -3.01842e-16 0.00076436 -3.53899
36 1 Cu 3.615 7.23 0 -0.000463207 -3.23146e-16 -8.83408e-16 -3.53899
37 1 Cu 5.4225 9.0375 0 -0.000553632 0.000553632 -6.27319e-16 -3.53899
38 1 Cu 3.615 9.0375 1.8075 0.00124969 -0.00283924 0.00163958 -3.53901
39 1 Cu 5.4225 7.23 1.8075 -0.000212742 -1.24304e-16 -3.16121e-05 -3.53899
40 1 Cu 7.23 7.23 0 -5.95986e-16 -3.37566e-16 -7.14706e-16 -3.53899
41 1 Cu 9.0375 9.0375 0 0.000553632 0.000553632 -5.42101e-17 -3.53899
42 1 Cu 7.23 9.0375 1.8075 -4.97405e-16 0.000212742 -3.16121e-05 -3.53899
43 1 Cu 9.0375 7.23 1.8075 0.000212742 -2.92518e-16 -3.16121e-05 -3.53899
44 1 Cu 10.845 7.23 0 0.000463207 -7.66748e-16 -4.4062e-16 -3.53899
45 1 Cu 12.6525 9.0375 0 -0.000808228 -0.0184488 -1.63064e-16 -3.53998
46 1 Cu 10.845 9.0375 1.8075 -0.00124969 -0.00283924 0.00163958 -3.53901
47 1 Cu 12.6525 7.23 1.8075 -0.00076436 -6.245e-16 0.00076436 -3.53899
48 1 Cu 0 10.845 0 4.51028e-17 -0.103641 -4.19803e-16 -3.52242
49 1 Cu 1.8075 12.6525 0 -0.0441757 0.0441757 -4.44957e-16 -3.43679
50 1 Cu 0 12.6525 1.8075 -4.33681e-17 0.0441757 -0.0441757 -3.43679
51 1 Cu 1.8075 10.845 1.8075 -0.0143322 0.0171257 -0.0143322 -3.55228
52 1 Cu 3.615 10.845 0 -0.0195926 0.0195926 -6.4052e-16 -3.54372
53 1 Cu 5.4225 12.6525 0 0.0184488 -0.000808228 -4.75314e-16 -3.53998
54 1 Cu 3.615 12.6525 1.8075 -0.0171257 0.0143322 -0.0143322 -3.55228
55 1 Cu 5.4225 10.845 1.8075 0.00283924 -0.00124969 0.00163958 -3.53901
56 1 Cu 7.23 10.845 0 -9.09971e-16 0.000463207 -5.58581e-16 -3.53899
57 1 Cu 9.0375 12.6525 0 -0.0184488 -0.000808228 -2.58907e-16 -3.53998
58 1 Cu 7.23 12.6525 1.8075 -6.20814e-16 -0.00076436 0.00076436 -3.53899
59 1 Cu 9.0375 10.845 1.8075 -0.00283924 -0.00124969 0.00163958 -3.53901
60 1 Cu 10.845 10.845 0 0.0195926 0.0195926 -2.15106e-16 -3.54372
61 1 Cu 12.6525 12.6525 0 0.0441757 0.0441757 -2.15106e-16 -3.43679
62 1 Cu 10.845 12.6525 1.8075 0.0171257 0.0143322 -0.0143322 -3.55228
63 1 Cu 12.6525 10.845 1.8075 0.0143322 0.0171257 -0.0143322 -3.55228
64 1 Cu 0 0 3.615 -7.80626e-16 -9.88792e-16 0.103641 -3.52242
65 1 Cu 1.8075 1.8075 3.615 -0.0143322 -0.0143322 -0.0171257 -3.55228
66 1 Cu 0 1.8075 5.4225 -9.4022e-16 0.000808228 0.0184488 -3.53998
67 1 Cu 1.8075 0 5.4225 0.000808228 -6.76542e-16 0.0184488 -3.53998
68 1 Cu 3.615 0 3.615 -0.0195926 -1.1666e-15 -0.0195926 -3.54372
69 1 Cu 5.4225 1.8075 3.615 0.00283924 0.00163958 0.00124969 -3.53901
70 1 Cu 3.615 1.8075 5.4225 0.00124969 0.00163958 0.00283924 -3.53901
71 1 Cu 5.4225 0 5.4225 -0.000553632 -1.17961e-15 -0.000553632 -3.53899
72 1 Cu 7.23 0 3.615 -4.94993e-16 -1.02002e-15 -0.000463207 -3.53899
73 1 Cu 9.0375 1.8075 3.615 -0.00283924 0.00163958 0.00124969 -3.53901
74 1 Cu 7.23 1.8075 5.4225 -3.45698e-16 -3.16121e-05 -0.000212742 -3.53899
75 1 Cu 9.0375 0 5.4225 0.000553632 -6.8695e-16 -0.000553632 -3.53899
76 1 Cu 10.845 0 3.615 0.0195926 -6.19296e-16 -0.0195926 -3.54372
77 1 Cu 12.6525 1.8075 3.615 0.0143322 -0.0143322 -0.0171257 -3.55228
78 1 Cu 10.845 1.8075 5.4225 -0.00124969 0.00163958 0.00283924 -3.53901
79 1 Cu 12.6525 0 5.4225 -0.000808228 -3.64292e-16 0.0184488 -3.53998
80 1 Cu 0 3.615 3.615 -1.32012e-15 -0.0195926 -0.0195926 -3.54372
81 1 Cu 1.8075 5.4225 3.615 0.00163958 0.00283924 0.00124969 -3.53901
82 1 Cu 0 5.4225 5.4225 -9.85323e-16 -0.000553632 -0.000553632 -3.53899
83 1 Cu 1.8075 3.615 5.4225 0.00163958 0.00124969 0.00283924 -3.53901
84 1 Cu 3.615 3.615 3.615 0.00301439 0.00301439 0.00301439 -3.53929
85 1 Cu 5.4225 5.4225 3.615 -0.000182672 -0.000182672 -7.71311e-05 -3.53899
86 1 Cu 3.615 5.4225 5.4225 -7.71311e-05 -0.000182672 -0.000182672 -3.53899
87 1 Cu 5.4225 3.615 5.4225 -0.000182672 -7.71311e-05 -0.000182672 -3.53899
88 1 Cu 7.23 3.615 3.615 -1.23545e-16 -2.82659e-05 -2.82659e-05 -3.53899
89 1 Cu 9.0375 5.4225 3.615 0.000182672 -0.000182672 -7.71311e-05 -3.53899
90 1 Cu 7.23 5.4225 5.4225 -1.23274e-16 4.4867e-16 2.30556e-16 -3.53899
91 1 Cu 9.0375 3.615 5.4225 0.000182672 -7.71311e-05 -0.000182672 -3.53899
92 1 Cu 10.845 3.615 3.615 -0.00301439 0.00301439 0.00301439 -3.53929
93 1 Cu 12.6525 5.4225 3.615 -0.00163958 0.00283924 0.00124969 -3.53901
94 1 Cu 10.845 5.4225 5.4225 7.71311e-05 -0.000182672 -0.000182672 -3.53899
95 1 Cu 12.6525 3.615 5.4225 -0.00163958 0.00124969 0.00283924 -3.53901
96 1 Cu 0 7.23 3.615 -9.02056e-16 -3.27863e-16 -0.000463207 -3.53899
97 1 Cu 1.8075 9.0375 3.615 0.00163958 -0.00283924 0.00124969 -3.53901
98 1 Cu 0 9.0375 5.4225 -6.66134e-16 0.000553632 -0.000553632 -3.53899
99 1 Cu 1.8075 7.23 5.4225 -3.16121e-05 -1.7087e-16 -0.000212742 -3.53899
100 1 Cu 3.615 7.23 3.615 -2.82659e-05 1.30104e-17 -2.82659e-05 -3.53899
101 1 Cu 5.4225 9.0375 3.615 -0.000182672 0.000182672 -7.71311e-05 -3.53899
102 1 Cu 3.615 9.0375 5.4225 -7.71311e-05 0.000182672 -0.000182672 -3.53899
103 1 Cu 5.4225 7.23 5.4225 4.45661e-16 2.31477e-16 1.85832e-16 -3.53899
104 1 Cu 7.23 7.23 3.615 -3.47541e-16 -1.29454e-16 -3.43475e-16 -3.53899
105 1 Cu 9.0375 9.0375 3.615 0.000182672 0.000182672 -7.71311e-05 -3.53899
106 1 Cu 7.23 9.0375 5.4225 -5.13532e-16 1.04257e-15 6.39679e-17 -3.53899
107 1 Cu 9.0375 7.23 5.4225 1.01828e-15 -2.28767e-16 2.5739e-16 -3.53899
108 1 Cu 10.845 7.23 3.615 2.82659e-05 -6.80012e-16 -2.82659e-05 -3.53899
109 1 Cu 12.6525 9.0375 3.615 -0.00163958 -0.00283924 0.00124969 -3.53901
110 1 Cu 10.845 9.0375 5.4225 7.71311e-05 0.000182672 -0.000182672 -3.53899
111 1 Cu 12.6525 7.23 5.4225 3.16121e-05 -6.40113e-16 -0.000212742 -3.53899
112 1 Cu 0 10.845 3.615 -4.38885e-16 0.0195926 -0.0195926 -3.54372
113 1 Cu 1.8075 12.6525 3.615 -0.0143322 0.0143322 -0.0171257 -3.55228
114 1 Cu 0 12.6525 5.4225 -3.67761e-16 -0.000808228 0.0184488 -3.53998
115 1 Cu 1.8075 10.845 5.4225 0.00163958 -0.00124969 0.00283924 -3.53901
116 1 Cu 3.615 10.845 3.615 0.00301439 -0.00301439 0.00301439 -3.53929
117 1 Cu 5.4225 12.6525 3.615 0.00283924 -0.00163958 0.00124969 -3.53901
118 1 Cu 3.615 12.6525 5.4225 0.00124969 -0.00163958 0.00283924 -3.53901
119 1 Cu 5.4225 10.845 5.4225 -0.000182672 7.71311e-05 -0.000182672 -3.53899
120 1 Cu 7.23 10.845 3.615 -7.19524e-16 2.82659e-05 -2.82659e-05 -3.53899
121 1 Cu 9.0375 12.6525 3.615 -0.00283924 -0.00163958 0.00124969 -3.53901
122 1 Cu 7.23 12.6525 5.4225 -8.05074e-16 3.16121e-05 -0.000212742 -3.53899
123 1 Cu 9.0375 10.845 5.4225 0.000182672 7.71311e-05 -0.000182672 -3.53899
124 1 Cu 10.845 10.845 3.615 -0.00301439 -0.00301439 0.00301439 -3.53929
125 1 Cu 12.6525 12.6525 3.615 0.0143322 0.0143322 -0.0171257 -3.55228
126 1 Cu 10.845 12.6525 5.4225 -0.00124969 -0.00163958 0.00283924 -3.53901
127 1 Cu 12.6525 10.845 5.4225 -0.00163958 -0.00124969 0.00283924 -3.53901
128 1 Cu 0 0 7.23 -6.21031e-16 -3.05311e-16 -7.18176e-16 -3.53899
129 1 Cu 1.8075 1.8075 7.23 0.00076436 0.00076436 -4.8312e-16 -3.53899
130 1 Cu 0 1.8075 9.0375 -8.08381e-16 0.000808228 -0.0184488 -3.53998
131 1 Cu 1.8075 0 9.0375 0.000808228 -5.85903e-16 -0.0184488 -3.53998
132 1 Cu 3.615 0 7.23 -0.000463207 -5.69857e-16 -2.23346e-16 -3.53899
133 1 Cu 5.4225 1.8075 7.23 -0.000212742 -3.16121e-05 -2.21177e-16 -3.53899
134 1 Cu 3.615 1.8075 9.0375 0.00124969 0.00163958 -0.00283924 -3.53901
135 1 Cu 5.4225 0 9.0375 -0.000553632 -5.10009e-16 0.000553632 -3.53899
136 1 Cu 7.23 0 7.23 -5.08545e-16 -5.23886e-16 -4.26742e-16 -3.53899
137 1 Cu 9.0375 1.8075 7.23 0.000212742 -3.16121e-05 -3.21032e-16 -3.53899
138 1 Cu 7.23 1.8075 9.0375 -3.79959e-16 -3.16121e-05 0.000212742 -3.53899
139 1 Cu 9.0375 0 9.0375 0.000553632 1.4962e-16 0.000553632 -3.53899
140 1 Cu 10.845 0 7.23 0.000463207 -2.98372e-16 -5.58581e-16 -3.53899
141 1 Cu 12.6525 1.8075 7.23 -0.00076436 0.00076436 -1.17961e-16 -3.53899
142 1 Cu 10.845 1.8075 9.0375 -0.00124969 0.00163958 -0.00283924 -3.53901
143 1 Cu 12.6525 0 9.0375 -0.000808228 -1.63064e-16 -0.0184488 -3.53998
144 1 Cu 0 3.615 7.23 -8.29198e-16 -0.000463207 -1.249e-16 -3.53899
145 1 Cu 1.8075 5.4225 7.23 -3.16121e-05 -0.000212742 3.29597e-17 -3.53899
146 1 Cu 0 5.4225 9.0375 -6.66134e-16 -0.000553632 0.000553632 -3.53899
147 1 Cu 1.8075 3.615 9.0375 0.00163958 0.00124969 -0.00283924 -3.53901
148 1 Cu 3.615 3.615 7.23 -2.82659e-05 -2.82659e-05 -1.26852e-16 -3.53899
149 1 Cu 5.4225 5.4225 7.23 3.9427e-16 5.34837e-16 3.07154e-16 -3.53899
150 1 Cu 3.615 5.4225 9.0375 -7.71311e-05 -0.000182672 0.000182672 -3.53899
151 1 Cu 5.4225 3.615 9.0375 -0.000182672 -7.71311e-05 0.000182672 -3.53899
152 1 Cu 7.23 3.615 7.23 -3.24176e-16 -2.13371e-16 -1.16877e-16 -3.53899
153 1 Cu 9.0375 5.4225 7.23 1.27415e-15 4.6122e-16 4.78133e-17 -3.53899
154 1 Cu 7.23 5.4225 9.0375 -4.01751e-16 2.40883e-16 8.10441e-16 -3.53899
155 1 Cu 9.0375 3.615 9.0375 0.000182672 -7.71311e-05 0.000182672 -3.53899
156 1 Cu 10.845 3.615 7.23 2.82659e-05 -2.82659e-05 -1.27502e-16 -3.53899
157 1 Cu 12.6525 5.4225 7.23 3.16121e-05 -0.000212742 3.81639e-17 -3.53899
158 1 Cu 10.845 5.4225 9.0375 7.71311e-05 -0.000182672 0.000182672 -3.53899
159 1 Cu 12.6525 3.615 9.0375 -0.00163958 0.00124969 -0.00283924 -3.53901
160 1 Cu 0 7.23 7.23 -7.35523e-16 -4.996e-16 -3.33067e-16 -3.53899
161 1 Cu 1.8075 9.0375 7.23 -3.16121e-05 0.000212742 -3.84241e-16 -3.53899
162 1 Cu 0 9.0375 9.0375 -9.36751e-17 0.000553632 0.000553632 -3.53899
163 1 Cu 1.8075 7.23 9.0375 -3.16121e-05 -4.03323e-16 0.000212742 -3.53899
164 1 Cu 3.615 7.23 7.23 -1.5439e-16 -1.38561e-16 -4.90059e-17 -3.53899
165 1 Cu 5.4225 9.0375 7.23 2.56847e-16 1.24477e-15 -9.26993e-17 -3.53899
166 1 Cu 3.615 9.0375 9.0375 -7.71311e-05 0.000182672 0.000182672 -3.53899
167 1 Cu 5.4225 7.23 9.0375 2.10769e-16 -5.73651e-16 8.51641e-16 -3.53899
168 1 Cu 7.23 7.23 7.23 -3.33501e-16 -3.9942e-16 -1.17528e-16 -3.53899
169 1 Cu 9.0375 9.0375 7.23 6.45209e-16 6.26642e-16 -6.16044e-16 -3.53899
170 1 Cu 7.23 9.0375 9.0375 -8.17759e-16 6.89173e-16 5.29633e-16 -3.53899
171 1 Cu 9.0375 7.23 9.0375 7.59213e-16 -8.46816e-16 6.46049e-16 -3.53899
172 1 Cu 10.845 7.23 7.23 -1.06165e-15 -6.8695e-16 -1.56125e-16 -3.53899
173 1 Cu 12.6525 9.0375 7.23 3.16121e-05 0.000212742 -4.23273e-16 -3.53899
174 1 Cu 10.845 9.0375 9.0375 7.71311e-05 0.000182672 0.000182672 -3.53899
175 1 Cu 12.6525 7.23 9.0375 3.16121e-05 -9.4369e-16 0.000212742 -3.53899
176 1 Cu 0 10.845 7.23 -4.89192e-16 0.000463207 -6.45317e-16 -3.53899
177 1 Cu 1.8075 12.6525 7.23 0.00076436 -0.00076436 -2.86229e-16 -3.53899
178 1 Cu 0 12.6525 9.0375 -3.36536e-16 -0.000808228 -0.0184488 -3.53998
179 1 Cu 1.8075 10.845 9.0375 0.00163958 -0.00124969 -0.00283924 -3.53901
180 1 Cu 3.615 10.845 7.23 -2.82659e-05 2.82659e-05 -1.30972e-16 -3.53899
181 1 Cu 5.4225 12.6525 7.23 -0.000212742 3.16121e-05 -1.76942e-16 -3.53899
182 1 Cu 3.615 12.6525 9.0375 0.00124969 -0.00163958 -0.00283924 -3.53901
183 1 Cu 5.4225 10.845 9.0375 -0.000182672 7.71311e-05 0.000182672 -3.53899
184 1 Cu 7.23 10.845 7.23 -7.58074e-16 -1.06859e-15 -2.13371e-16 -3.53899
185 1 Cu 9.0375 12.6525 7.23 0.000212742 3.16121e-05 -4.76398e-16 -3.53899
186 1 Cu 7.23 12.6525 9.0375 -8.9734e-16 3.16121e-05 0.000212742 -3.53899
187 1 Cu 9.0375 10.845 9.0375 0.000182672 7.71311e-05 0.000182672 -3.53899
188 1 Cu 10.845 10.845 7.23 2.82659e-05 2.82659e-05 -3.9465e-16 -3.53899
189 1 Cu 12.6525 12.6525 7.23 -0.00076436 -0.00076436 -3.7817e-16 -3.53899
190 1 Cu 10.845 12.6525 9.0375 -0.00124969 -0.00163958 -0.00283924 -3.53901
191 1 Cu 12.6525 10.845 9.0375 -0.00163958 -0.00124969 -0.00283924 -3.53901
192 1 Cu 0 0 10.845 -4.19803e-16 -4.71845e-16 -0.103641 -3.52242
193 1 Cu 1.8075 1.8075 10.845 -0.0143322 -0.0143322 0.0171257 -3.55228
194 1 Cu 0 1.8075 12.6525 -4.96131e-16 -0.0441757 0.0441757 -3.43679
195 1 Cu 1.8075 0 12.6525 -0.0441757 -5.30825e-16 0.0441757 -3.43679
196 1 Cu 3.615 0 10.845 -0.0195926 -6.60062e-16 0.0195926 -3.54372
197 1 Cu 5.4225 1.8075 10.845 0.00283924 0.00163958 -0.00124969 -3.53901
198 1 Cu 3.615 1.8075 12.6525 -0.0171257 -0.0143322 0.0143322 -3.55228
199 1 Cu 5.4225 0 12.6525 0.0184488 -7.97973e-16 -0.000808228 -3.53998
200 1 Cu 7.23 0 10.845 -8.70885e-16 -6.14092e-16 0.000463207 -3.53899
201 1 Cu 9.0375 1.8075 10.845 -0.00283924 0.00163958 -0.00124969 -3.53901
202 1 Cu 7.23 1.8075 12.6525 -2.1561e-16 0.00076436 -0.00076436 -3.53899
203 1 Cu 9.0375 0 12.6525 -0.0184488 -1.09504e-16 -0.000808228 -3.53998
204 1 Cu 10.845 0 10.845 0.0195926 -1.9082e-16 0.0195926 -3.54372
205 1 Cu 12.6525 1.8075 10.845 0.0143322 -0.0143322 0.0171257 -3.55228
206 1 Cu 10.845 1.8075 12.6525 0.0171257 -0.0143322 0.0143322 -3.55228
207 1 Cu 12.6525 0 12.6525 0.0441757 -1.19696e-16 0.0441757 -3.43679
208 1 Cu 0 3.615 10.845 -7.21645e-16 -0.0195926 0.0195926 -3.54372
209 1 Cu 1.8075 5.4225 10.845 0.00163958 0.00283924 -0.00124969 -3.53901
210 1 Cu 0 5.4225 12.6525 -6.17562e-16 0.0184488 -0.000808228 -3.53998
211 1 Cu 1.8075 3.615 12.6525 -0.0143322 -0.0171257 0.0143322 -3.55228
212 1 Cu 3.615 3.615 10.845 0.00301439 0.00301439 -0.00301439 -3.53929
213 1 Cu 5.4225 5.4225 10.845 -0.000182672 -0.000182672 7.71311e-05 -3.53899
214 1 Cu 3.615 5.4225 12.6525 0.00124969 0.00283924 -0.00163958 -3.53901
215 1 Cu 5.4225 3.615 12.6525 0.00283924 0.00124969 -0.00163958 -3.53901
216 1 Cu 7.23 3.615 10.845 -4.60037e-16 -2.82659e-05 2.82659e-05 -3.53899
217 1 Cu 9.0375 5.4225 10.845 0.000182672 -0.000182672 7.71311e-05 -3.53899
218 1 Cu 7.23 5.4225 12.6525 -5.52997e-16 -0.000212742 3.16121e-05 -3.53899
219 1 Cu 9.0375 3.615 12.6525 -0.00283924 0.00124969 -0.00163958 -3.53901
220 1 Cu 10.845 3.615 10.845 -0.00301439 0.00301439 -0.00301439 -3.53929
221 1 Cu 12.6525 5.4225 10.845 -0.00163958 0.00283924 -0.00124969 -3.53901
222 1 Cu 10.845 5.4225 12.6525 -0.00124969 0.00283924 -0.00163958 -3.53901
223 1 Cu 12.6525 3.615 12.6525 0.0143322 -0.0171257 0.0143322 -3.55228
224 1 Cu 0 7.23 10.845 -5.82867e-16 -7.28584e-16 0.000463207 -3.53899
225 1 Cu 1.8075 9.0375 10.845 0.00163958 -0.00283924 -0.00124969 -3.53901
226 1 Cu 0 9.0375 12.6525 -1.78677e-16 -0.0184488 -0.000808228 -3.53998
227 1 Cu 1.8075 7.23 12.6525 0.00076436 -3.77302e-16 -0.00076436 -3.53899
228 1 Cu 3.615 7.23 10.845 -2.82659e-05 -5.4015e-16 2.82659e-05 -3.53899
229 1 Cu 5.4225 9.0375 10.845 -0.000182672 0.000182672 7.71311e-05 -3.53899
230 1 Cu 3.615 9.0375 12.6525 0.00124969 -0.00283924 -0.00163958 -3.53901
231 1 Cu 5.4225 7.23 12.6525 -0.000212742 -4.02835e-16 3.16121e-05 -3.53899
232 1 Cu 7.23 7.23 10.845 -5.32998e-16 -4.21104e-16 -9.71445e-16 -3.53899
233 1 Cu 9.0375 9.0375 10.845 0.000182672 0.000182672 7.71311e-05 -3.53899
234 1 Cu 7.23 9.0375 12.6525 -5.49691e-16 0.000212742 3.16121e-05 -3.53899
235 1 Cu 9.0375 7.23 12.6525 0.000212742 -4.74122e-16 3.16121e-05 -3.53899
236 1 Cu 10.845 7.23 10.845 2.82659e-05 -6.89553e-16 2.82659e-05 -3.53899
237 1 Cu 12.6525 9.0375 10.845 -0.00163958 -0.00283924 -0.00124969 -3.53901
238 1 Cu 10.845 9.0375 12.6525 -0.00124969 -0.00283924 -0.00163958 -3.53901
239 1 Cu 12.6525 7.23 12.6525 -0.00076436 -6.05418e-16 -0.00076436 -3.53899
240 1 Cu 0 10.845 10.845 -1.73472e-16 0.0195926 0.0195926 -3.54372
241 1 Cu 1.8075 12.6525 10.845 -0.0143322 0.0143322 0.0171257 -3.55228
242 1 Cu 0 12.6525 12.6525 -7.11237e-17 0.0441757 0.0441757 -3.43679
243 1 Cu 1.8075 10.845 12.6525 -0.0143322 0.0171257 0.0143322 -3.55228
244 1 Cu 3.615 10.845 10.845 0.00301439 -0.00301439 -0.00301439 -3.53929
245 1 Cu 5.4225 12.6525 10.845 0.00283924 -0.00163958 -0.00124969 -3.53901
246 1 Cu 3.615 12.6525 12.6525 -0.0171257 0.0143322 0.0143322 -3.55228
247 1 Cu 5.4225 10.845 12.6525 0.00283924 -0.00124969 -0.00163958 -3.53901
248 1 Cu 7.23 10.845 10.845 -8.56639e-16 2.82659e-05 2.82659e-05 -3.53899
249 1 Cu 9.0375 12.6525 10.845 -0.00283924 -0.00163958 -0.00124969 -3.53901
250 1 Cu 7.23 12.6525 12.6525 -7.60568e-16 -0.00076436 -0.00076436 -3.53899
251 1 Cu 9.0375 10.845 12.6525 -0.00283924 -0.00124969 -0.00163958 -3.53901
252 1 Cu 10.845 10.845 10.845 -0.00301439 -0.00301439 -0.00301439 -3.53929
253 1 Cu 12.6525 12.6525 10.845 0.0143322 0.0143322 0.0171257 -3.55228
254 1 Cu 10.845 12.6525 12.6525 0.0171257 0.0143322 0.0143322 -3.55228
255 1 Cu 12.6525 10.845 12.6525 0.0143322 0.0171257 0.0143322 -3.55228
ITEM: TIMESTEP
1
ITEM: NUMBER OF ATOMS
255
ITEM: BOX BOUNDS pp pp pp
0.0000000000000000e+00 1.4460000000000001e+01
0.0000000000000000e+00 1.4460000000000001e+01
0.0000000000000000e+00 1.4460000000000001e+01
ITEM: ATOMS id type element x y z fx fy fz c_energy
1 1 Cu 1.76488 1.76488 -8.70365e-17 -0.0821137 -0.0821137 1.01742e-15 -3.44434
2 1 Cu -6.12603e-16 1.76488 1.76488 2.22045e-16 -0.0821137 -0.0821137 -3.44434
3 1 Cu 1.76488 -4.5192e-16 1.76488 -0.0821137 5.37764e-16 -0.0821137 -3.44434
4 1 Cu 3.715 -8.61787e-16 -6.46235e-16 0.0570836 3.60822e-16 8.76035e-16 -3.53814
5 1 Cu 5.4403 1.80828 -5.85822e-16 0.0255358 0.0260769 1.60982e-15 -3.53659
6 1 Cu 3.59848 1.79367 1.79367 -0.0176448 -0.0151991 -0.0151991 -3.55419
7 1 Cu 5.4403 -9.27273e-16 1.80828 0.0255358 1.56125e-15 0.0260769 -3.53659
8 1 Cu 7.23 -6.82902e-16 -6.24319e-16 1.66371e-16 9.08995e-16 9.88792e-16 -3.55711
9 1 Cu 9.0197 1.80828 -3.40195e-16 -0.0255358 0.0260769 1.19631e-15 -3.53659
10 1 Cu 7.23 1.80824 1.80824 3.88199e-16 0.00536654 0.00536654 -3.53567
11 1 Cu 9.0197 -3.93338e-16 1.80828 -0.0255358 5.73326e-16 0.0260769 -3.53659
12 1 Cu 10.745 -8.36889e-17 -3.44798e-16 -0.0570836 6.73073e-16 1.26288e-15 -3.53814
13 1 Cu 12.6951 1.76488 -2.41024e-16 0.0821137 -0.0821137 1.9082e-16 -3.44434
14 1 Cu 10.8615 1.79367 1.79367 0.0176448 -0.0151991 -0.0151991 -3.55419
15 1 Cu 12.6951 -1.20512e-16 1.76488 0.0821137 6.33174e-16 -0.0821137 -3.44434
16 1 Cu -8.46932e-16 3.715 -6.96292e-16 3.83374e-16 0.0570836 1.11022e-16 -3.53814
17 1 Cu 1.80828 5.4403 -7.69938e-16 0.0260769 0.0255358 1.76942e-16 -3.53659
18 1 Cu -1.07791e-15 5.4403 1.80828 1.56125e-15 0.0255358 0.0260769 -3.53659
19 1 Cu 1.79367 3.59848 1.79367 -0.0151991 -0.0176448 -0.0151991 -3.55419
20 1 Cu 3.5961 3.5961 -8.83336e-16 -0.0237247 -0.0237247 8.47846e-16 -3.54324
21 1 Cu 5.42197 5.42197 -1.16495e-15 -0.0116163 -0.0116163 -2.08167e-17 -3.53986
22 1 Cu 3.61621 5.42524 1.80908 -0.00533464 -0.0123708 -0.000673777 -3.53873
23 1 Cu 5.42524 3.61621 1.80908 -0.0123708 -0.00533464 -0.000673777 -3.53873
24 1 Cu 7.23 3.61455 -6.89806e-16 1.02023e-16 0.0161774 5.48389e-16 -3.53366
25 1 Cu 9.03803 5.42197 -5.75152e-16 0.0116163 -0.0116163 6.07153e-16 -3.53986
26 1 Cu 7.23 5.42229 1.80747 6.657e-16 -0.00126941 -0.000118269 -3.53986
27 1 Cu 9.03476 3.61621 1.80908 0.0123708 -0.00533464 -0.000673777 -3.53873
28 1 Cu 10.8639 3.5961 -3.71579e-16 0.0237247 -0.0237247 -1.17961e-16 -3.54324
29 1 Cu 12.6517 5.4403 -4.72005e-16 -0.0260769 0.0255358 8.98587e-16 -3.53659
30 1 Cu 10.8438 5.42524 1.80908 0.00533464 -0.0123708 -0.000673777 -3.53873
31 1 Cu 12.6663 3.59848 1.79367 0.0151991 -0.0176448 -0.0151991 -3.55419
32 1 Cu -6.42731e-16 7.23 -6.47752e-16 7.14706e-16 3.62557e-16 5.16948e-16 -3.55711
33 1 Cu 1.80828 9.0197 -5.15524e-16 0.0260769 -0.0255358 1.08594e-15 -3.53659
34 1 Cu -5.90844e-16 9.0197 1.80828 1.0391e-15 -0.0255358 0.0260769 -3.53659
35 1 Cu 1.80824 7.23 1.80824 0.00536654 4.10262e-16 0.00536654 -3.53567
36 1 Cu 3.61455 7.23 -8.52372e-16 0.0161774 5.99022e-17 6.0737e-16 -3.53366
37 1 Cu 5.42197 9.03803 -6.0528e-16 -0.0116163 0.0116163 3.22659e-16 -3.53986
38 1 Cu 3.61621 9.03476 1.80908 -0.00533464 0.0123708 -0.000673777 -3.53873
39 1 Cu 5.42229 7.23 1.80747 -0.00126941 5.16839e-16 -0.000118269 -3.53986
40 1 Cu 7.23 7.23 -6.89597e-16 7.38044e-16 5.37412e-16 9.71445e-16 -3.5402
41 1 Cu 9.03803 9.03803 -5.23056e-17 0.0116163 0.0116163 1.95156e-17 -3.53986
42 1 Cu 7.23 9.03771 1.80747 1.37477e-15 0.00126941 -0.000118269 -3.53986
43 1 Cu 9.03771 7.23 1.80747 0.00126941 4.60244e-16 -0.000118269 -3.53986
44 1 Cu 10.8454 7.23 -4.2514e-16 -0.0161774 9.33281e-16 9.12465e-16 -3.53366
45 1 Cu 12.6517 9.0197 -1.57335e-16 -0.0260769 -0.0255358 1.0443e-15 -3.53659
46 1 Cu 10.8438 9.03476 1.80908 0.00533464 0.0123708 -0.000673777 -3.53873
47 1 Cu 12.6518 7.23 1.80824 -0.00536654 1.24206e-15 0.00536654 -3.53567
48 1 Cu 4.35182e-17 10.745 -4.05054e-16 1.59595e-16 -0.0570836 8.89913e-16 -3.53814
49 1 Cu 1.76488 12.6951 -4.29324e-16 -0.0821137 0.0821137 2.67147e-16 -3.44434
50 1 Cu -4.18445e-17 12.6951 1.76488 2.60209e-16 0.0821137 -0.0821137 -3.44434
51 1 Cu 1.79367 10.8615 1.79367 -0.0151991 0.0176448 -0.0151991 -3.55419
52 1 Cu 3.5961 10.8639 -6.18016e-16 -0.0237247 0.0237247 8.55978e-17 -3.54324
53 1 Cu 5.4403 12.6517 -4.58615e-16 0.0255358 -0.0260769 1.04083e-15 -3.53659
54 1 Cu 3.59848 12.6663 1.79367 -0.0176448 0.0151991 -0.0151991 -3.55419
55 1 Cu 5.42524 10.8438 1.80908 -0.0123708 0.00533464 -0.000673777 -3.53873
56 1 Cu 7.23 10.8454 -5.38957e-16 9.38892e-16 -0.0161774 1.14145e-15 -3.53366
57 1 Cu 9.0197 12.6517 -2.49811e-16 -0.0255358 -0.0260769 1.30104e-17 -3.53659
58 1 Cu 7.23 12.6518 1.80824 7.76492e-16 -0.00536654 0.00536654 -3.53567
59 1 Cu 9.03476 10.8438 1.80908 0.0123708 0.00533464 -0.000673777 -3.53873
60 1 Cu 10.8639 10.8639 -2.07549e-16 0.0237247 0.0237247 -1.55431e-15 -3.54324
61 1 Cu 12.6951 12.6951 -2.07549e-16 0.0821137 0.0821137 3.29597e-16 -3.44434
62 1 Cu 10.8615 12.6663 1.79367 0.0176448 0.0151991 -0.0151991 -3.55419
63 1 Cu 12.6663 10.8615 1.79367 0.0151991 0.0176448 -0.0151991 -3.55419
64 1 Cu -7.532e-16 -9.54054e-16 3.715 9.29812e-16 1.11716e-15 0.0570836 -3.53814
65 1 Cu 1.79367 1.79367 3.59848 -0.0151991 -0.0151991 -0.0176448 -3.55419
66 1 Cu -9.07188e-16 1.80828 5.4403 1.76942e-16 0.0260769 0.0255358 -3.53659
67 1 Cu 1.80828 -6.52774e-16 5.4403 0.0260769 7.84095e-16 0.0255358 -3.53659
68 1 Cu 3.5961 -1.12562e-15 3.5961 -0.0237247 1.63476e-15 -0.0237247 -3.54324
69 1 Cu 5.42524 1.80908 3.61621 -0.0123708 -0.000673777 -0.00533464 -3.53873
70 1 Cu 3.61621 1.80908 5.42524 -0.00533464 -0.000673777 -0.0123708 -3.53873
71 1 Cu 5.42197 -1.13817e-15 5.42197 -0.0116163 8.18789e-16 -0.0116163 -3.53986
72 1 Cu 7.23 -9.84182e-16 3.61455 6.21736e-16 1.15186e-15 0.0161774 -3.53366
73 1 Cu 9.03476 1.80908 3.61621 0.0123708 -0.000673777 -0.00533464 -3.53873
74 1 Cu 7.23 1.80747 5.42229 3.71014e-16 -0.000118269 -0.00126941 -3.53986
75 1 Cu 9.03803 -6.62816e-16 5.42197 0.0116163 1.20368e-15 -0.0116163 -3.53986
76 1 Cu 10.8639 -5.97539e-16 3.5961 0.0237247 5.67255e-16 -0.0237247 -3.54324
77 1 Cu 12.6663 1.79367 3.59848 0.0151991 -0.0151991 -0.0176448 -3.55419
78 1 Cu 10.8438 1.80908 5.42524 0.00533464 -0.000673777 -0.0123708 -3.53873
79 1 Cu 12.6517 -3.51493e-16 5.4403 -0.0260769 6.50521e-16 0.0255358 -3.53659
80 1 Cu -1.27375e-15 3.5961 3.5961 1.09461e-15 -0.0237247 -0.0237247 -3.54324
81 1 Cu 1.80908 5.42524 3.61621 -0.000673777 -0.0123708 -0.00533464 -3.53873
82 1 Cu -9.50706e-16 5.42197 5.42197 1.20737e-15 -0.0116163 -0.0116163 -3.53986
83 1 Cu 1.80908 3.61621 5.42524 -0.000673777 -0.00533464 -0.0123708 -3.53873
84 1 Cu 3.61791 3.61791 3.61791 -0.00855849 -0.00855849 -0.00855849 -3.54026
85 1 Cu 5.42232 5.42232 3.61493 0.000511621 0.000511621 0.00164747 -3.53955
86 1 Cu 3.61493 5.42232 5.42232 0.00164747 0.000511621 0.000511621 -3.53955
87 1 Cu 5.42232 3.61493 5.42232 0.000511621 0.00164747 0.000511621 -3.53955
88 1 Cu 7.23 3.61497 3.61497 5.00739e-16 0.00133289 0.00133289 -3.5402
89 1 Cu 9.03768 5.42232 3.61493 -0.000511621 0.000511621 0.00164747 -3.53955
90 1 Cu 7.23 5.4225 5.4225 9.81366e-16 -0.000431974 -0.000431974 -3.53886
91 1 Cu 9.03768 3.61493 5.42232 -0.000511621 0.00164747 0.000511621 -3.53955
92 1 Cu 10.8421 3.61791 3.61791 0.00855849 -0.00855849 -0.00855849 -3.54026
93 1 Cu 12.6509 5.42524 3.61621 0.000673777 -0.0123708 -0.00533464 -3.53873
94 1 Cu 10.8451 5.42232 5.42232 -0.00164747 0.000511621 0.000511621 -3.53955
95 1 Cu 12.6509 3.61621 5.42524 0.000673777 -0.00533464 -0.0123708 -3.53873
96 1 Cu -8.70365e-16 7.23 3.61455 8.08381e-16 3.34802e-16 0.0161774 -3.53366
97 1 Cu 1.80908 9.03476 3.61621 -0.000673777 0.0123708 -0.00533464 -3.53873
98 1 Cu -6.42731e-16 9.03803 5.42197 5.6552e-16 0.0116163 -0.0116163 -3.53986
99 1 Cu 1.80747 7.23 5.42229 -0.000118269 2.09034e-16 -0.00126941 -3.53986
100 1 Cu 3.61497 7.23 3.61497 0.00133289 2.35868e-16 0.00133289 -3.5402
101 1 Cu 5.42232 9.03768 3.61493 0.000511621 -0.000511621 0.00164747 -3.53955
102 1 Cu 3.61493 9.03768 5.42232 0.00164747 -0.000511621 0.000511621 -3.53955
103 1 Cu 5.4225 7.23 5.4225 -0.000431974 7.80951e-16 -0.000431974 -3.53886
104 1 Cu 7.23 7.23 3.615 9.50357e-16 3.2396e-16 -0.00105984 -3.5388
105 1 Cu 9.03768 9.03768 3.61493 -0.000511621 -0.000511621 0.00164747 -3.53955
106 1 Cu 7.23 9.0375 5.4225 5.81241e-16 0.000431974 -0.000431974 -3.53886
107 1 Cu 9.0375 7.23 5.4225 0.000431974 5.86608e-16 -0.000431974 -3.53886
108 1 Cu 10.845 7.23 3.61497 -0.00133289 1.03563e-15 0.00133289 -3.5402
109 1 Cu 12.6509 9.03476 3.61621 0.000673777 0.0123708 -0.00533464 -3.53873
110 1 Cu 10.8451 9.03768 5.42232 -0.00164747 -0.000511621 0.000511621 -3.53955
111 1 Cu 12.6525 7.23 5.42229 0.000118269 8.39606e-16 -0.00126941 -3.53986
112 1 Cu -4.23466e-16 10.8639 3.5961 2.74086e-16 0.0237247 -0.0237247 -3.54324
113 1 Cu 1.79367 12.6663 3.59848 -0.0151991 0.0151991 -0.0176448 -3.55419
114 1 Cu -3.54841e-16 12.6517 5.4403 1.2837e-15 -0.0260769 0.0255358 -3.53659
115 1 Cu 1.80908 10.8438 5.42524 -0.000673777 0.00533464 -0.0123708 -3.53873
116 1 Cu 3.61791 10.8421 3.61791 -0.00855849 0.00855849 -0.00855849 -3.54026
117 1 Cu 5.42524 12.6509 3.61621 -0.0123708 0.000673777 -0.00533464 -3.53873
118 1 Cu 3.61621 12.6509 5.42524 -0.00533464 0.000673777 -0.0123708 -3.53873
119 1 Cu 5.42232 10.8451 5.42232 0.000511621 -0.00164747 0.000511621 -3.53955
120 1 Cu 7.23 10.845 3.61497 1.42092e-15 -0.00133289 0.00133289 -3.5402
121 1 Cu 9.03476 12.6509 3.61621 0.0123708 0.000673777 -0.00533464 -3.53873
122 1 Cu 7.23 12.6525 5.42229 5.86147e-16 0.000118269 -0.00126941 -3.53986
123 1 Cu 9.03768 10.8451 5.42232 -0.000511621 -0.00164747 0.000511621 -3.53955
124 1 Cu 10.8421 10.8421 3.61791 0.00855849 0.00855849 -0.00855849 -3.54026
125 1 Cu 12.6663 12.6663 3.59848 0.0151991 0.0151991 -0.0176448 -3.55419
126 1 Cu 10.8438 12.6509 5.42524 0.00533464 0.000673777 -0.0123708 -3.53873
127 1 Cu 12.6509 10.8438 5.42524 0.000673777 0.00533464 -0.0123708 -3.53873
128 1 Cu -5.99213e-16 -2.94585e-16 7.23 1.19349e-15 -9.71445e-17 9.47159e-16 -3.55711
129 1 Cu 1.80824 1.80824 7.23 0.00536654 0.00536654 2.3332e-16 -3.53567
130 1 Cu -7.79981e-16 1.80828 9.0197 6.66134e-16 0.0260769 -0.0255358 -3.53659
131 1 Cu 1.80828 -5.65319e-16 9.0197 0.0260769 1.02956e-15 -0.0255358 -3.53659
132 1 Cu 3.61455 -5.49836e-16 7.23 0.0161774 4.43656e-16 -1.48536e-17 -3.53366
133 1 Cu 5.42229 1.80747 7.23 -0.00126941 -0.000118269 -5.3256e-16 -3.53986
134 1 Cu 3.61621 1.80908 9.03476 -0.00533464 -0.000673777 0.0123708 -3.53873
135 1 Cu 5.42197 -4.92091e-16 9.03803 -0.0116163 5.58581e-16 0.0116163 -3.53986
136 1 Cu 7.23 -5.05481e-16 7.23 8.42398e-16 1.3288e-15 -3.46945e-18 -3.5402
137 1 Cu 9.03771 1.80747 7.23 0.00126941 -0.000118269 2.68882e-16 -3.53986
138 1 Cu 7.23 1.80747 9.03771 4.33356e-16 -0.000118269 0.00126941 -3.53986
139 1 Cu 9.03803 1.44363e-16 9.03803 0.0116163 -4.80518e-16 0.0116163 -3.53986
140 1 Cu 10.8454 -2.8789e-16 7.23 -0.0161774 4.87457e-16 6.72205e-16 -3.53366
141 1 Cu 12.6518 1.80824 7.23 -0.00536654 0.00536654 1.02696e-15 -3.53567
142 1 Cu 10.8438 1.80908 9.03476 0.00533464 -0.000673777 0.0123708 -3.53873
143 1 Cu 12.6517 -1.57335e-16 9.0197 -0.0260769 1.34961e-15 -0.0255358 -3.53659
144 1 Cu -8.00066e-16 3.61455 7.23 4.16334e-17 0.0161774 5.13478e-16 -3.53366
145 1 Cu 1.80747 5.42229 7.23 -0.000118269 -0.00126941 3.82507e-16 -3.53986