LAMMPS (22 Dec 2022)
units 	metal
dimension 	3
boundary 	p p p
atom_style 	atomic
atom_modify map yes
read_data 	initial_new.lmp
Reading data file ...
  orthogonal box = (0 0 0) to (14.46 14.46 14.46)
  1 by 1 by 1 MPI processor grid
  reading atoms ...
  255 atoms
  read_data CPU = 0.001 seconds
include 	potential.inp
#pair_style 	pace
#pair_coeff 	* * copper.yace Cu
pair_style hybrid/overlay pace table linear 6901
ACE version: 2022.6.27
Recursive evaluator is used
pair_coeff * * pace ../potential.yace Cu
Loading ../potential.yace
Total number of basis functions
	Cu: 6 (r=1) 23 (r>1)
Mapping LAMMPS atom type #1(Cu) -> ACE species type #0
pair_coeff 1 1 table ../potential_pairpot.table Cu_Cu
Reading pair table potential file ../potential_pairpot.table with DATE: none
WARNING: 5 of 6901 force values in table Cu_Cu are inconsistent with -dE/dr.
WARNING:  Should only be flagged at inflection points (../pair_table.cpp:466)
#pair_style eam/alloy
#pair_coeff * * Cu.eam.alloy Cu
variable dumptime 	equal 1
variable thermotime 	equal 1
min_style 	cg

compute energy all pe/atom
dump 1 	all custom ${dumptime} dump.out id type element xsu ysu zsu fx fy fz
dump 1 	all custom 1 dump.out id type element xsu ysu zsu fx fy fz
dump 4 	all custom ${dumptime} dump.cfg id type element x y z fx fy fz c_energy
dump 4 	all custom 1 dump.cfg id type element x y z fx fy fz c_energy
dump 5 	all custom ${dumptime} lmp_dump.xyz id type element x y z fx fy fz c_energy
dump 5 	all custom 1 lmp_dump.xyz id type element x y z fx fy fz c_energy
dump_modify 5 sort id element Cu
dump_modify 4 sort id element Cu
dump_modify 1 sort id format line "%d %d %s %20.15g %20.15g %20.15g %20.15g %20.15g %20.15g %20.15g"
dump_modify 1 element Cu


#dump 2 all custom ${dumptime} dump_e_atom.out id type xsu ysu zsu c_peratom
#dump_modify 2 sort id format line "%d %d %20.15g %20.15g %20.15g %20.15g"

dump 3 all custom 100 dump3_*.out id type x y z
dump_modify 3 sort id

thermo_style 	custom step temp pe etotal pxx pxy pxz pyy pyz pzz vol
thermo_modify 	format float %20.15g
thermo 	${thermotime}
thermo 	1
#fix         br all box/relax x 10. y 10. z 10.
minimize 	0.0 0.0001 100000 10000000
Neighbor list info ...
  update: every = 1 steps, delay = 0 steps, check = yes
  max neighbors/atom: 2000, page size: 100000
  master list distance cutoff = 9
  ghost atom cutoff = 9
  binsize = 4.5, bins = 4 4 4
  2 neighbor lists, perpetual/occasional/extra = 2 0 0
  (1) pair pace, perpetual
      attributes: full, newton on, cut 7.506786
      pair build: full/bin/atomonly
      stencil: full/bin/3d
      bin: standard
  (2) pair table, perpetual
      attributes: half, newton on
      pair build: half/bin/atomonly/newton
      stencil: half/bin/3d
      bin: standard
Per MPI rank memory allocation (min/avg/max) = 10.6 | 10.6 | 10.6 Mbytes
   Step          Temp          PotEng         TotEng          Pxx            Pxy            Pxz            Pyy            Pyz            Pzz           Volume    
         0                     0    -901.519410407948    -901.519410407948     70.7444659166627 7.16099205747491e-12 -1.35571644240873e-11     70.7444659166715 -5.31995523550985e-12     70.7444659167005          3023.464536
         1                     0    -901.667643081088    -901.667643081088    -988.645621831087 -6.3685947335284e-12 3.03353963923841e-11    -988.645621831085 4.42069458336288e-12    -988.645621831087          3023.464536
         2                     0    -902.105485889124    -902.105485889124    -4515.72424520634 1.06780595301192e-11 3.35344018301264e-12    -4515.72424520634 -1.99294361753602e-11    -4515.72424520633          3023.464536
         3                     0     -903.20842661131     -903.20842661131    -11085.2970585806 -1.2178282769888e-11  1.1354630795113e-11    -11085.2970585806 7.00839582107686e-12    -11085.2970585806          3023.464536
         4                     0    -905.475721541035    -905.475721541035    -20861.6223572829 -2.07089639372009e-11 1.35314252998756e-11    -20861.6223572829 1.02074012588192e-11    -20861.6223572828          3023.464536
         5                     0    -909.010647462932    -909.010647462932    -30850.1774456275 3.67113451614016e-11 8.11885517992535e-11    -30850.1774456275 1.10913563246045e-10    -30850.1774456274          3023.464536
         6                     0    -911.849535072319    -911.849535072319    -31619.3760677035 1.55241161224417e-10 -4.84606808300291e-11    -31619.3760677035 -4.97907270923088e-11    -31619.3760677035          3023.464536
         7                     0    -913.893099260827    -913.893099260827    -32257.6223523045 -4.43584389647035e-10 3.03656628446938e-10    -32257.6223523044  4.5177954294516e-10    -32257.6223523045          3023.464536
         8                     0    -916.315230813053    -916.315230813053    -41667.4212363558 4.66743626283748e-10 -3.0755449706975e-10    -41667.4212363558 -3.81818305201615e-10    -41667.4212363557          3023.464536
         9                     0    -918.627481344994    -918.627481344994    -45408.8014509378 -1.79119254830186e-09 1.22499984047229e-09    -45408.8014509378 1.61316375904653e-09    -45408.8014509379          3023.464536
        10                     0    -921.654230320154    -921.654230320154    -56584.6818368588 1.32363395699775e-08 -8.88149393963815e-09     -56584.681836859 -1.18930840810778e-08    -56584.6818368586          3023.464536
        11                     0    -925.789856065457    -925.789856065457    -56466.0945224622 -8.68466033008464e-08 5.76850479414277e-08    -56466.0945224619 7.79322584250513e-08    -56466.0945224629          3023.464536
        12                     0    -931.036624299249    -931.036624299249    -64932.0011322007 -5.95201362679365e-08 3.95438631598009e-08    -64932.0011322003 5.35606980069131e-08    -64932.0011322022          3023.464536
        13                     0    -940.123359019441    -940.123359019441    -94374.7998733905 1.00424956539687e-07 -6.6412110353186e-08    -94374.7998733901 -8.98489673451378e-08    -94374.7998733913          3023.464536
        14                     0    -946.258986250481    -946.258986250481    -119759.199214629 -6.8112515524348e-07 4.51645063999629e-07     -119759.19921463 6.11611539879505e-07    -119759.199214627          3023.464536
        15                     0    -954.137384166202    -954.137384166202    -132922.817890306  2.4661777680089e-06 -1.63672724011286e-06    -132922.817890304 -2.21654298568659e-06    -132922.817890307          3023.464536
        16                     0    -965.057422301119    -965.057422301119    -171051.844993639 -1.92017952685387e-06 1.27613836207239e-06    -171051.844993638 1.72765089817392e-06     -171051.84499364          3023.464536
        17                     0    -978.701700269829    -978.701700269829    -212246.557932051 2.06836981084062e-06 -1.37449730612852e-06    -212246.557932052 -1.86094760830643e-06    -212246.557932049          3023.464536
        18                     0    -994.051890905987    -994.051890905987    -220529.287238842 -1.58896780916335e-06 1.05473691514706e-06    -220529.287238842  1.4278105563571e-06    -220529.287238841          3023.464536
        19                     0     -1008.6733834228     -1008.6733834228    -213173.138406133 3.32081713501423e-06 -2.20456959055428e-06    -213173.138406132 -2.9847422502165e-06    -213173.138406135          3023.464536
        20                     0    -1021.87531752852    -1021.87531752852    -214288.710828788 -3.6861803088047e-06 2.44869263487132e-06    -214288.710828787 3.31522265048869e-06    -214288.710828788          3023.464536
        21                     0    -1034.44859508649    -1034.44859508649    -205333.038931202 1.77444431505523e-06 -1.17916557734695e-06    -205333.038931202 -1.59618745348637e-06    -205333.038931203          3023.464536
        22                     0    -1044.63593492553    -1044.63593492553    -189958.995493372 -7.97547108241485e-06 5.29872558039121e-06    -189958.995493372 7.17314332887245e-06    -189958.995493373          3023.464536
        23                     0    -1054.87832333432    -1054.87832333432    -214009.290483266 -0.000134083880886602 8.90724382397642e-05    -214009.290483264 0.000120581163430108    -214009.290483267          3023.464536
        24                     0    -1070.20389199667    -1070.20389199667    -236918.879465552 1.10755247263146e-05 -7.35706035091519e-06    -236918.879465553 -9.96023733268891e-06    -236918.879465551          3023.464536
        25                     0    -1074.86083728403    -1074.86083728403    -244608.105377613 -2.82839617254043e-05 1.87901620723856e-05    -244608.105377613 2.54368233824482e-05    -244608.105377614          3023.464536
        26                     0    -1084.46723515061    -1084.46723515061    -278464.144222386 2.89428135018616e-05 -1.92257826739889e-05    -278464.144222384 -2.60269592781287e-05     -278464.14422239          3023.464536
        27                     0    -1095.20782958012    -1095.20782958012    -301929.741147798 -2.70894360653424e-05 1.79956608136959e-05      -301929.7411478 2.43613654010752e-05    -301929.741147794          3023.464536
        28                     0    -1106.90065875301    -1106.90065875301    -306608.887312427 -1.34988561716991e-05 8.96747915916772e-06     -306608.88731243  1.2139183084037e-05    -306608.887312422          3023.464536
        29                     0    -1116.05458144115    -1116.05458144115    -294998.278698218 6.25345963347764e-05 -4.15412435547324e-05    -294998.278698215 -5.62368564662714e-05    -294998.278698221          3023.464536
        30                     0    -1124.34437557769    -1124.34437557769    -290132.529890235 1.39470224193629e-05 -9.26416046926673e-06    -290132.529890231 -1.25418795437933e-05     -290132.52989024          3023.464536
        31                     0    -1126.55006276616    -1126.55006276616    -306913.429332701  1.7207699060242e-05 -1.14303451038865e-05    -306913.429332693 -1.54740874941398e-05    -306913.429332716          3023.464536
        32                     0    -1129.41517299991    -1129.41517299991    -331340.155763299 0.000414196687018681 -0.000275157282422662    -331340.155763214 -0.000372490819098601    -331340.155763455          3023.464536
        33                     0    -1162.06367919409    -1162.06367919409    -286644.440422704 -0.000405095552957721 0.000269096524708477    -286644.440422782 0.000364285952105037    -286644.440422569          3023.464536
        34                     0    -1179.38480711551    -1179.38480711551    -332785.358460614  0.00070025802301033 -0.00046518062758507    -332785.358460612 -0.000629731721712272    -332785.358460615          3023.464536
        35                     0    -1199.89869359159    -1199.89869359159    -375641.299301812 -0.00091020286777878 0.000604663804379067    -375641.299301589 0.000818561398451521     -375641.29930218          3023.464536
        36                     0    -1226.56182679415    -1226.56182679415    -396935.605215076 -0.00123965169832095  0.00082351415511981    -396935.605215203  0.00111481885597246    -396935.605214861          3023.464536
        37                     0    -1256.08402343201    -1256.08402343201    -430885.625433393  0.00343472844347251 -0.00228170695575222    -430885.625433188 -0.00308882825507292    -430885.625433744          3023.464536
        38                     0    -1285.92495583782    -1285.92495583782    -450292.258594441 -0.000152967975949816 0.000101614963750309    -450292.258594363 0.000137563579061237    -450292.258594575          3023.464536
        39                     0    -1300.11137111469    -1300.11137111469    -396768.683859393 -0.00195197663479364  0.00129667634136625    -396768.683860472  0.00175535144578342    -396768.683857565          3023.464536
        40                     0    -1320.62960801566    -1320.62960801566    -323300.837099024 -0.00282323770868698   0.0018754296247643    -323300.837099362  0.00253882220577118    -323300.837098444          3023.464536
        41                     0    -1336.19589842387    -1336.19589842387    -365125.969024414 -0.000102416779711083 6.80661500697535e-05    -365125.969023906  9.2155914025936e-05    -365125.969025283          3023.464536
        42                     0    -1357.58703778046    -1357.58703778046    -439054.556364431  0.00366559780122339 -0.00243502653549281    -439054.556364285 -0.00329638395620872    -439054.556364674          3023.464536
        43                     0    -1398.46171566217    -1398.46171566217    -493350.130623726  0.00358422316117457 -0.00238105273716182    -493350.130624089 -0.00322329034285401    -493350.130623095          3023.464536
        44                     0    -1452.71705917349    -1452.71705917349    -485473.846890431 0.000764762330562364 -0.000508121273664237    -485473.846890806 -0.000687852649948415    -485473.846889773          3023.464536
        45                     0    -1481.24849260338    -1481.24849260338    -456539.252489593 0.000686546151300417 -0.00045610210510246    -456539.252489337 -0.000617462620781186    -456539.252490035          3023.464536
        46                     0    -1511.88770804964    -1511.88770804964    -436659.182788725  0.00207340290146409 -0.00137723366538311    -436659.182787617  -0.0018644037336518    -436659.182790657          3023.464536
        47                     0    -1559.30573930105    -1559.30573930105    -515334.066342959  0.00791242509410955 -0.00525689063669276    -515334.066342218 -0.00711665893886623    -515334.066344229          3023.464536
        48                     0    -1615.89558159591    -1615.89558159591    -534990.678230943  0.00838271523645391 -0.00557042631005236    -534990.678229849 -0.00754177701488045    -534990.678232852          3023.464536
        49                     0     -1679.0180014365     -1679.0180014365    -498591.485400472 -0.00457846537852258  0.00304306728828831    -498591.485400468  0.00412044293684212    -498591.485400473          3023.464536
        50                     0    -1718.22154292025    -1718.22154292025    -445852.271427907  -0.0039712308334296  0.00263806633655472    -445852.271427218  0.00357111537862047    -445852.271429126          3023.464536
        51                     0    -1746.79491821529    -1746.79491821529    -388781.547862416  0.00350044486300975 -0.00232685500559683    -388781.547862548 -0.00315081835035213     -388781.54786219          3023.464536
        52                     0    -1758.98589926395    -1758.98589926395    -267740.129288389   0.0107396640759682 -0.00713553173322043      -267740.1292879 -0.00966013867387457    -267740.129289252          3023.464536
        53                     0    -1772.37356161143    -1772.37356161143    -201768.707664505 -0.00197662338242554  0.00131367941435069    -201768.707664698  0.00177870881010828    -201768.707664168          3023.464536
        54                     0    -1772.66916292688    -1772.66916292688     -194751.83367076 -0.00119094124949347 0.000789824184875718    -194751.833671147  0.00106837611114806    -194751.833670083          3023.464536
        55                     0    -1774.40481255605    -1774.40481255605    -164842.247825281 -0.00133792510274441 0.000889529064220656    -164842.247825395  0.00120462312635767    -164842.247825082          3023.464536
        56                     0    -1775.44866663837    -1775.44866663837    -176879.077559457 -0.00116136776412383 0.000771707069911079    -176879.077559712  0.00104479670572369    -176879.077559011          3023.464536
        57                     0    -1777.80019005019    -1777.80019005019    -112501.528886673 -0.00184051295789416  0.00122338810631568    -112501.528884437  0.00165660457646514    -112501.528890622          3023.464536
        58                     0    -1781.48649314909    -1781.48649314909    -75581.1354847344 0.000618689719378816 -0.000411475140238753    -75581.1354906889 -0.000557278974250614    -75581.1354742239          3023.464536
        59                     0      -1787.391119562      -1787.391119562    -280350.451469499  -0.0676912229228393   0.0449393061318038    -280350.451297945   0.0608216650366298    -280350.451772114          3023.464536
        60                     0    -1808.89372628863    -1808.89372628863    -508742.740031092  -0.0583554067742785   0.0388364030896533    -508742.739983947   0.0526179483741218    -508742.740114191          3023.464536
        61                     0    -1831.84468478973    -1831.84468478973    -634866.841874096  -0.0617207144399303   0.0411476615053506    -634866.841887312   0.0557913554297719    -634866.841850684          3023.464536
        62                     0     -1895.1192204295     -1895.1192204295    -651834.314391996  -0.0367565421410271   0.0239466102668767    -651834.313772449   0.0321390334798113     -651834.31548531          3023.464536
        63                     0    -1950.78040327298    -1950.78040327298    -664585.911697402  -0.0806005012044043   0.0538219614214618    -664585.912578246   0.0730424822581829    -664585.910143313          3023.464536
        64                     0    -2081.64713780033    -2081.64713780033    -703767.001662298   0.0974786012589202  -0.0637836664673763    -703766.997031293  -0.0857717940828945    -703767.009834051          3023.464536
        65                     0    -2279.78596013184    -2279.78596013184    -653718.508747747    0.203142936063676    -0.13409802294912    -653718.499574758   -0.181023523454966    -653718.524933866          3023.464536
        66                     0    -2731.63366633678    -2731.63366633678    -1619981.90703211    0.607503405427396   -0.473599072970973    -1619981.85107507   -0.681999000327085    -1619982.00576811          3023.464536
        67                     0    -7777.38214188684    -7777.38214188684    -8212201.09935706     8.63739957474776    -6.94871936357506    -8212200.23991457    -10.1113307418529    -8212202.61583304          3023.464536
        68                     0    -73708.7671212794    -73708.7671212794    -62618645.6898127     73.3893760785572    -60.0408548180218    -62618635.2104548    -87.8494096316631    -62618664.1800681          3023.464536
        69                     0    -1113493.30692806    -1113493.30692806     -469833295.75708    -662.066440471462     462.961105523643    -469833190.771999     639.843830545483    -469833480.980636          3023.464536
ERROR on proc 0: Pair distance < table inner cutoff: ijtype 1 1 dist 0.03886917871187267 (../pair_table.cpp:116)
Last command: minimize 	0.0 0.0001 100000 10000000
