ITEM: TIMESTEP
0
ITEM: NUMBER OF ATOMS
255
ITEM: BOX BOUNDS pp pp pp
0.0000000000000000e+00 1.4460000000000001e+01
0.0000000000000000e+00 1.4460000000000001e+01
0.0000000000000000e+00 1.4460000000000001e+01
ITEM: ATOMS id type element xsu ysu zsu fx fy fz
1 1 Cu                0.125                0.125                    0   -0.117714058446581   -0.117714058446581 -5.63785129692462e-15
2 1 Cu                    0                0.125                0.125 -5.49560397189452e-15   -0.117714058446581   -0.117714058446581
3 1 Cu                0.125                    0                0.125   -0.117714058446581 -5.57887069874141e-15   -0.117714058446581
4 1 Cu                 0.25                    0                    0   0.0511697547122485 -4.91273688396632e-15 -4.99947305776516e-15
5 1 Cu                0.375                0.125                    0 -0.00526868606328705 -0.00179165522153321 -5.72111802377151e-15
6 1 Cu                 0.25                0.125                0.125 -0.00367901035261538 -0.00184027382089005 -0.00184027382088996
7 1 Cu                0.375                    0                0.125 -0.00526868606328714 -5.71764857681956e-15 -0.00179165522153314
8 1 Cu                  0.5                    0                    0 -2.70096445209589e-15 -3.60822483003176e-15 -3.61169427698371e-15
9 1 Cu                0.625                0.125                    0  0.00526868606329348 -0.00179165522153316 -3.64638874650325e-15
10 1 Cu                  0.5                0.125                0.125 1.48752538065011e-16 -5.54172617455717e-05 -5.5417261745498e-05
11 1 Cu                0.625                    0                0.125  0.00526868606329343 -3.58046925441613e-15 -0.00179165522153316
12 1 Cu                 0.75                    0                    0  -0.0511697547122559 -2.83280343627013e-15 -2.8874472257634e-15
13 1 Cu                0.875                0.125                    0    0.117714058446586   -0.117714058446579 -3.55791784922843e-15
14 1 Cu                 0.75                0.125                0.125  0.00367901035260949 -0.00184027382088996 -0.00184027382088992
15 1 Cu                0.875                    0                0.125    0.117714058446586 -3.51108031537706e-15   -0.117714058446579
16 1 Cu                    0                 0.25                    0 -4.91273688396632e-15   0.0511697547122485  -5.086209231564e-15
17 1 Cu                0.125                0.375                    0 -0.00179165522153318  -0.0052686860632871 -5.8043847506184e-15
18 1 Cu                    0                0.375                0.125 -5.6621374255883e-15 -0.00526868606328722 -0.00179165522153305
19 1 Cu                0.125                 0.25                0.125 -0.00184027382089014 -0.00367901035261534 -0.00184027382088996
20 1 Cu                 0.25                 0.25                    0   -0.015880906365605   -0.015880906365605 -5.93969318174459e-15
21 1 Cu                0.375                0.375                    0 -0.000118427844026797 -0.000118427844026728 -5.93969318174459e-15
22 1 Cu                 0.25                0.375                0.125 -0.000563530070452909 -0.000818703816814583 -0.000255985168016448
23 1 Cu                0.375                 0.25                0.125 -0.000818703816814597 -0.00056353007045291 -0.00025598516801642
24 1 Cu                  0.5                 0.25                    0 -1.20086232624494e-15 -3.6885726474659e-05 -4.38538094726937e-15
25 1 Cu                0.625                0.375                    0 0.000118427844033167 -0.000118427844026877 -3.71924713249427e-15
26 1 Cu                  0.5                0.375                0.125 1.31838984174237e-16 -3.70133727542465e-06 -4.65937415011775e-07
27 1 Cu                0.625                 0.25                0.125 0.000818703816820199 -0.000563530070452917 -0.000255985168016365
28 1 Cu                 0.75                 0.25                    0   0.0158809063655985  -0.0158809063656049 -3.78863607153335e-15
29 1 Cu                0.875                0.375                    0  0.00179165522153957 -0.00526868606328713 -3.69149155687865e-15
30 1 Cu                 0.75                0.375                0.125 0.000563530070447266 -0.000818703816814474 -0.000255985168016338
31 1 Cu                0.875                 0.25                0.125  0.00184027382089562 -0.00367901035261518 -0.00184027382088982
32 1 Cu                    0                  0.5                    0 -3.46944695195361e-15 -2.6402491304367e-15 -3.66373598126302e-15
33 1 Cu                0.125                0.625                    0 -0.00179165522153318  0.00526868606329352 -3.60649010655578e-15
34 1 Cu                    0                0.625                0.125 -3.49720252756924e-15  0.00526868606329346 -0.00179165522153306
35 1 Cu                0.125                  0.5                0.125 -5.54172617455995e-05 1.59160878920872e-16 -5.54172617454407e-05
36 1 Cu                 0.25                  0.5                    0 -3.68857264746365e-05 -1.22861790186057e-15 -4.35762537165374e-15
37 1 Cu                0.375                0.625                    0 -0.000118427844026834 0.000118427844033171 -3.49720252756924e-15
38 1 Cu                 0.25                0.625                0.125 -0.00056353007045286 0.000818703816820227 -0.000255985168016448
39 1 Cu                0.375                  0.5                0.125 -3.70133727547366e-06 2.56739074444567e-16 -4.6593741503953e-07
40 1 Cu                  0.5                  0.5                    0 -2.01054450865712e-15 -2.0118455512641e-15 -2.77555756156289e-15
41 1 Cu                0.625                0.625                    0 0.000118427844033091 0.000118427844033068 -1.2490009027033e-15
42 1 Cu                  0.5                0.625                0.125 -1.98452365651747e-15 3.70133728039637e-06 -4.65937414984019e-07
43 1 Cu                0.625                  0.5                0.125 3.70133728037382e-06 -1.91079790878845e-15 -4.65937415011775e-07
44 1 Cu                 0.75                  0.5                    0 3.68857264689687e-05 -3.57049459442926e-15 -2.09554595897998e-15
45 1 Cu                0.875                0.625                    0  0.00179165522153951  0.00526868606329339 -1.41553435639707e-15
46 1 Cu                 0.75                0.625                0.125 0.000563530070447228 0.000818703816820145 -0.000255985168016418
47 1 Cu                0.875                  0.5                0.125 5.54172617503942e-05 -2.00534033822919e-15 -5.54172617454607e-05
48 1 Cu                    0                 0.75                    0 -2.77555756156289e-15  -0.0511697547122558 -2.95249935611253e-15
49 1 Cu                0.125                0.875                    0   -0.117714058446579    0.117714058446586 -3.50934559190108e-15
50 1 Cu                    0                0.875                0.125 -3.38618022510673e-15    0.117714058446586   -0.117714058446579
51 1 Cu                0.125                 0.75                0.125 -0.00184027382088994  0.00367901035260953 -0.00184027382088989
52 1 Cu                 0.25                 0.75                    0  -0.0158809063656048   0.0158809063655985 -3.56659146660832e-15
53 1 Cu                0.375                0.875                    0 -0.00526868606328705  0.00179165522153954 -3.65679708735911e-15
54 1 Cu                 0.25                0.875                0.125  -0.0036790103526152  0.00184027382089565  -0.0018402738208899
55 1 Cu                0.375                 0.75                0.125 -0.000818703816814482  0.00056353007044728 -0.00025598516801639
56 1 Cu                  0.5                 0.75                    0 -3.5305959544818e-15 3.68857264690242e-05 -2.06779038336435e-15
57 1 Cu                0.625                0.875                    0  0.00526868606329335  0.00179165522153957 -1.41553435639707e-15
58 1 Cu                  0.5                0.875                0.125 -1.98712574173143e-15 5.54172617503526e-05 -5.54172617457105e-05
59 1 Cu                0.625                 0.75                0.125 0.000818703816820079  0.00056353007044724 -0.000255985168016473
60 1 Cu                 0.75                 0.75                    0   0.0158809063655984   0.0158809063655985  -1.346145417358e-15
61 1 Cu                0.875                0.875                    0    0.117714058446585    0.117714058446585 -1.56819002228303e-15
62 1 Cu                 0.75                0.875                0.125  0.00367901035260954  0.00184027382089551 -0.00184027382088987
63 1 Cu                0.875                 0.75                0.125  0.00184027382089556  0.00367901035260949 -0.00184027382088987
64 1 Cu                    0                    0                 0.25 -5.02375918642883e-15 -5.05151476204446e-15   0.0511697547122486
65 1 Cu                0.125                0.125                 0.25 -0.00184027382089014 -0.00184027382089007 -0.00367901035261534
66 1 Cu                    0                0.125                0.375 -5.77315972805081e-15 -0.00179165522153314 -0.00526868606328718
67 1 Cu                0.125                    0                0.375 -0.00179165522153324 -5.68989300120393e-15  -0.0052686860632871
68 1 Cu                 0.25                    0                 0.25  -0.0158809063656049 -5.71764857681956e-15   -0.015880906365605
69 1 Cu                0.375                0.125                 0.25 -0.00081870381681463 -0.000255985168016531 -0.000563530070452924
70 1 Cu                 0.25                0.125                0.375 -0.000563530070452877 -0.000255985168016448 -0.000818703816814627
71 1 Cu                0.375                    0                0.375 -0.000118427844026728 -5.74540415243519e-15 -0.000118427844026747
72 1 Cu                  0.5                    0                 0.25 -1.17354043149831e-15 -4.24660306919122e-15 -3.68857264747037e-05
73 1 Cu                0.625                0.125                 0.25 0.000818703816820204 -0.000255985168016531 -0.000563530070452841
74 1 Cu                  0.5                0.125                0.375 1.72604985859692e-16 -4.6593741503953e-07 -3.70133727544417e-06
75 1 Cu                0.625                    0                0.375 0.000118427844033099 -3.58046925441613e-15 -0.000118427844026785
76 1 Cu                 0.75                    0                 0.25   0.0158809063655984 -3.54924423184855e-15  -0.0158809063656049
77 1 Cu                0.875                0.125                 0.25  0.00184027382089556 -0.00184027382088998 -0.00367901035261515
78 1 Cu                 0.75                0.125                0.375 0.000563530070447252 -0.000255985168016476 -0.000818703816814578
79 1 Cu                0.875                    0                0.375  0.00179165522153961 -3.62210261783957e-15 -0.00526868606328713
80 1 Cu                    0                 0.25                 0.25 -5.63438184997267e-15  -0.0158809063656049  -0.0158809063656049
81 1 Cu                0.125                0.375                 0.25 -0.000255985168016615 -0.000818703816814609 -0.000563530070452935
82 1 Cu                    0                0.375                0.375 -5.74540415243519e-15 -0.000118427844026768 -0.000118427844026851
83 1 Cu                0.125                 0.25                0.375 -0.000255985168016559 -0.00056353007045285 -0.000818703816814646
84 1 Cu                 0.25                 0.25                 0.25 -0.00129008549235326  -0.0012900854923532 -0.00129008549235327
85 1 Cu                0.375                0.375                 0.25 -1.45015179479572e-05 -1.45015179479433e-05 -8.89983695575094e-06
86 1 Cu                 0.25                0.375                0.375 -8.89983695576135e-06 -1.45015179478826e-05 -1.45015179479485e-05
87 1 Cu                0.375                 0.25                0.375 -1.4501517947952e-05 -8.89983695571625e-06 -1.45015179479034e-05
88 1 Cu                  0.5                 0.25                 0.25 2.22044604925031e-16 -8.61264175099595e-06 -8.61264175103411e-06
89 1 Cu                0.625                0.375                 0.25 1.45015179536575e-05 -1.45015179479069e-05 -8.89983695578217e-06
90 1 Cu                  0.5                0.375                0.375 1.76941794549634e-16  9.8879238130678e-17 1.02348685082632e-16
91 1 Cu                0.625                 0.25                0.375  1.4501517953654e-05 -8.89983695578217e-06 -1.45015179479555e-05
92 1 Cu                 0.75                 0.25                 0.25  0.00129008549234762 -0.00129008549235318 -0.00129008549235323
93 1 Cu                0.875                0.375                 0.25 0.000255985168022152 -0.000818703816814551  -0.0005635300704529
94 1 Cu                 0.75                0.375                0.375 8.89983695016167e-06 -1.45015179478583e-05 -1.45015179479043e-05
95 1 Cu                0.875                 0.25                0.375 0.000255985168022142 -0.000563530070452897 -0.000818703816814665
96 1 Cu                    0                  0.5                 0.25 -4.27435864480685e-15 -1.21430643318376e-15 -3.68857264746447e-05
97 1 Cu                0.125                0.625                 0.25 -0.000255985168016518 0.000818703816820232 -0.000563530070452884
98 1 Cu                    0                0.625                0.375 -3.56659146660832e-15 0.000118427844033098 -0.000118427844026742
99 1 Cu                0.125                  0.5                0.375 -4.65937415095041e-07  2.1987620058006e-16 -3.70133727543333e-06
100 1 Cu                 0.25                  0.5                 0.25 -8.61264175104799e-06  1.6306400674182e-16 -8.61264175102544e-06
101 1 Cu                0.375                0.625                 0.25 -1.45015179479017e-05 1.45015179536419e-05 -8.89983695586544e-06
102 1 Cu                 0.25                0.625                0.375 -8.89983695578564e-06 1.45015179535968e-05 -1.45015179479156e-05
103 1 Cu                0.375                  0.5                0.375 6.07153216591882e-17 1.59594559789866e-16 3.29597460435593e-17
104 1 Cu                  0.5                  0.5                 0.25 -5.82867087928207e-16 -4.83987849797529e-16 -1.96023752785379e-16
105 1 Cu                0.625                0.625                 0.25 1.45015179535673e-05 1.45015179535152e-05 -8.89983695580993e-06
106 1 Cu                  0.5                0.625                0.375 -2.00187089127724e-15 4.85722573273506e-15 -3.46944695195361e-18
107 1 Cu                0.625                  0.5                0.375 4.86069517968701e-15 -1.98799310346942e-15 1.56125112837913e-17
108 1 Cu                 0.75                  0.5                 0.25 8.61264174618123e-06 -2.05000946773559e-15 -8.61264175104322e-06
109 1 Cu                0.875                0.625                 0.25 0.000255985168021968 0.000818703816820143 -0.000563530070452938
110 1 Cu                 0.75                0.625                0.375 8.89983695015473e-06 1.45015179535135e-05 -1.45015179480075e-05
111 1 Cu                0.875                  0.5                0.375 4.65937419924511e-07 -2.00880978518114e-15 -3.70133727554262e-06
112 1 Cu                    0                 0.75                 0.25 -3.66373598126302e-15   0.0158809063655985   -0.015880906365605
113 1 Cu                0.125                0.875                 0.25 -0.00184027382089005  0.00184027382089564  -0.0036790103526153
114 1 Cu                    0                0.875                0.375 -3.66373598126302e-15  0.00179165522153951 -0.00526868606328714
115 1 Cu                0.125                 0.75                0.375 -0.000255985168016504 0.000563530070447224 -0.000818703816814512
116 1 Cu                 0.25                 0.75                 0.25 -0.00129008549235313   0.0012900854923476 -0.00129008549235322
117 1 Cu                0.375                0.875                 0.25 -0.000818703816814551 0.000255985168021987 -0.000563530070452945
118 1 Cu                 0.25                0.875                0.375 -0.000563530070452803 0.000255985168022083 -0.000818703816814537
119 1 Cu                0.375                 0.75                0.375 -1.45015179479242e-05 8.89983695018248e-06 -1.45015179478375e-05
120 1 Cu                  0.5                 0.75                 0.25 -1.97064586870965e-15 8.61264174617472e-06 -8.61264175104149e-06
121 1 Cu                0.625                0.875                 0.25  0.00081870381682015 0.000255985168022008 -0.00056353007045291
122 1 Cu                  0.5                0.875                0.375 -1.93248195223816e-15 4.65937419900225e-07 -3.70133727549751e-06
123 1 Cu                0.625                 0.75                0.375 1.45015179535291e-05 8.89983695017554e-06 -1.45015179479763e-05
124 1 Cu                 0.75                 0.75                 0.25  0.00129008549234759  0.00129008549234757 -0.00129008549235317
125 1 Cu                0.875                0.875                 0.25  0.00184027382089546  0.00184027382089541  -0.0036790103526151
126 1 Cu                 0.75                0.875                0.375   0.0005635300704473 0.000255985168022043 -0.000818703816814613
127 1 Cu                0.875                 0.75                0.375 0.000255985168022083 0.000563530070447224 -0.000818703816814592
128 1 Cu                    0                    0                  0.5 -3.63598040564739e-15 -3.63598040564739e-15 -2.64371857738865e-15
129 1 Cu                0.125                0.125                  0.5 -5.5417261745655e-05 -5.54172617455275e-05 2.62810606610486e-16
130 1 Cu                    0                0.125                0.625 -3.58046925441613e-15  -0.0017916552215331  0.00526868606329346
131 1 Cu                0.125                    0                0.625  -0.0017916552215332 -3.6125616387217e-15  0.00526868606329354
132 1 Cu                 0.25                    0                  0.5 -3.68857264745549e-05 -4.24660306919122e-15 -1.08940634291343e-15
133 1 Cu                0.375                0.125                  0.5 -3.70133727543159e-06 -4.6593741503953e-07 4.31512464649231e-16
134 1 Cu                 0.25                0.125                0.625 -0.000563530070452769 -0.00025598516801642 0.000818703816820324
135 1 Cu                0.375                    0                0.625 -0.000118427844026765 -3.52495810318487e-15 0.000118427844033112
136 1 Cu                  0.5                    0                  0.5 -2.02572333907192e-15 -2.80331313717852e-15 -1.74860126378462e-15
137 1 Cu                0.625                0.125                  0.5 3.70133728038249e-06 -4.65937415067286e-07 -1.74556549770166e-15
138 1 Cu                  0.5                0.125                0.625 -2.09164283115904e-15 -4.65937415206064e-07 3.70133728038943e-06
139 1 Cu                0.625                    0                0.625  0.00011842784403308 -1.30451205393456e-15  0.00011842784403299
140 1 Cu                 0.75                    0                  0.5 3.68857264690589e-05 -2.09554595897998e-15 -3.44906395111089e-15
141 1 Cu                0.875                0.125                  0.5 5.54172617504428e-05 -5.54172617455717e-05 -1.96370697480575e-15
142 1 Cu                 0.75                0.125                0.625 0.000563530070447313 -0.000255985168016529 0.000818703816820091
143 1 Cu                0.875                    0                0.625  0.00179165522153953 -1.42941214420489e-15  0.00526868606329332
144 1 Cu                    0                 0.25                  0.5 -4.16333634234434e-15 -3.6885726474617e-05 -1.0547118733939e-15
145 1 Cu                0.125                0.375                  0.5 -4.6593741503953e-07 -3.70133727544547e-06 4.31512464649231e-16
146 1 Cu                    0                0.375                0.625 -3.46944695195361e-15 -0.000118427844026813 0.000118427844033056
147 1 Cu                0.125                 0.25                0.625 -0.000255985168016545 -0.000563530070452715 0.000818703816820253
148 1 Cu                 0.25                 0.25                  0.5 -8.61264175096993e-06 -8.61264175099768e-06 4.23272528138341e-16
149 1 Cu                0.375                0.375                  0.5 7.80625564189563e-17 7.63278329429795e-17 3.57353036051222e-16
150 1 Cu                 0.25                0.375                0.625 -8.8998369558238e-06 -1.45015179479641e-05 1.45015179535187e-05
151 1 Cu                0.375                 0.25                0.625 -1.45015179479294e-05 -8.8998369557787e-06 1.45015179535083e-05
152 1 Cu                  0.5                 0.25                  0.5 -6.17561557447743e-16 -2.02962646689286e-16 -4.00721122950642e-16
153 1 Cu                0.625                0.375                  0.5 4.82253126321552e-15 3.46944695195361e-17 -1.88044024795886e-15
154 1 Cu                  0.5                0.375                0.625 -2.02962646689286e-15 2.08166817117217e-17 4.74793815374852e-15
155 1 Cu                0.625                 0.25                0.625 1.45015179535239e-05 -8.89983695578911e-06  1.4501517953432e-05
156 1 Cu                 0.75                 0.25                  0.5 8.61264174616735e-06 -8.61264175106144e-06 -1.8774044818759e-15
157 1 Cu                0.875                0.375                  0.5  4.6593741993145e-07 -3.70133727550792e-06 -1.86656246015104e-15
158 1 Cu                 0.75                0.375                0.625 8.89983695019983e-06 -1.45015179480092e-05 1.45015179534268e-05
159 1 Cu                0.875                 0.25                0.625 0.000255985168022008 -0.000563530070452834 0.000818703816820067
160 1 Cu                    0                  0.5                  0.5 -2.74780198594726e-15 -1.97758476261356e-15 -1.81799020282369e-15
161 1 Cu                0.125                0.625                  0.5 -4.65937415206064e-07 3.70133728042413e-06 -1.73992764640474e-15
162 1 Cu                    0                0.625                0.625 -1.29063426612674e-15 0.000118427844033042 0.000118427844033014
163 1 Cu                0.125                  0.5                0.625 -4.65937415317086e-07 -1.92554305833426e-15 3.70133728039984e-06
164 1 Cu                 0.25                  0.5                  0.5 -2.13370987545147e-16 -6.08454259198865e-16  -4.263082942213e-16
165 1 Cu                0.375                0.625                  0.5 1.90819582357449e-17 4.82079653973955e-15 -1.9151347174784e-15
166 1 Cu                 0.25                0.625                0.625 -8.8998369558238e-06 1.45015179535586e-05 1.45015179534597e-05
167 1 Cu                0.375                  0.5                0.625 1.04083408558608e-17 -2.02268757298896e-15 4.77742845284013e-15
168 1 Cu                  0.5                  0.5                  0.5 -1.26634813746307e-15 -1.28543009569881e-15 -1.17961196366423e-15
169 1 Cu                0.625                0.625                  0.5 4.82947015711943e-15 4.80518402845576e-15 -4.14945855453652e-15
170 1 Cu                  0.5                0.625                0.625 -4.28129753871076e-15 4.78957151717196e-15 4.74446870679657e-15
171 1 Cu                0.625                  0.5                0.625 4.81212292235966e-15 -4.25701141004708e-15 4.66987559732956e-15
172 1 Cu                 0.75                  0.5                  0.5 -3.88838267140201e-15 -2.77295547634893e-15 -2.62160085306995e-15
173 1 Cu                0.875                0.625                  0.5 4.65937419983492e-07 3.70133728030964e-06 -4.06619182768964e-15
174 1 Cu                 0.75                0.625                0.625 8.89983695026575e-06 1.45015179534337e-05 1.45015179533955e-05
175 1 Cu                0.875                  0.5                0.625 4.65937420035534e-07 -4.18762247100801e-15 3.70133728018474e-06
176 1 Cu                    0                 0.75                  0.5 -2.1094237467878e-15  3.6885726469045e-05 -3.40005801291454e-15
177 1 Cu                0.125                0.875                  0.5 -5.5417261745655e-05 5.54172617504567e-05 -1.8995222061946e-15
178 1 Cu                    0                0.875                0.625 -1.30451205393456e-15  0.00179165522153939  0.00526868606329336
179 1 Cu                0.125                 0.75                0.625 -0.000255985168016559 0.000563530070447304 0.000818703816820102
180 1 Cu                 0.25                 0.75                  0.5 -8.61264175099552e-06 8.61264174611184e-06 -1.86786350275803e-15
181 1 Cu                0.375                0.875                  0.5 -3.70133727542292e-06 4.65937419945328e-07 -1.90125692967058e-15
182 1 Cu                 0.25                0.875                0.625 -0.000563530070452841 0.000255985168021966 0.000818703816820102
183 1 Cu                0.375                 0.75                0.625 -1.45015179479745e-05 8.89983695015126e-06 1.45015179534684e-05
184 1 Cu                  0.5                 0.75                  0.5 -2.73695996422241e-15 -3.96297578086902e-15 -2.69359187732299e-15
185 1 Cu                0.625                0.875                  0.5 3.70133728033913e-06 4.65937419938389e-07 -4.11476408501699e-15
186 1 Cu                  0.5                0.875                0.625 -4.25701141004708e-15 4.65937420054616e-07 3.70133728017433e-06
187 1 Cu                0.625                 0.75                0.625 1.45015179534441e-05 8.89983695025881e-06 1.45015179534008e-05
188 1 Cu                 0.75                 0.75                  0.5 8.61264174620291e-06 8.61264174626189e-06 -4.21667908923062e-15
189 1 Cu                0.875                0.875                  0.5 5.54172617504567e-05 5.54172617504567e-05 -4.1286418728248e-15
190 1 Cu                 0.75                0.875                0.625 0.000563530070447301  0.00025598516802217 0.000818703816819944
191 1 Cu                0.875                 0.75                0.625 0.000255985168022249 0.000563530070447182 0.000818703816819935
192 1 Cu                    0                    0                 0.75 -2.77555756156289e-15 -2.92127433354494e-15  -0.0511697547122558
193 1 Cu                0.125                0.125                 0.75 -0.00184027382088989 -0.00184027382088988  0.00367901035260954
194 1 Cu                    0                0.125                0.875 -3.34454686168328e-15   -0.117714058446579    0.117714058446586
195 1 Cu                0.125                    0                0.875   -0.117714058446579 -3.37403716077489e-15    0.117714058446586
196 1 Cu                 0.25                    0                 0.75  -0.0158809063656048 -3.60822483003176e-15   0.0158809063655985
197 1 Cu                0.375                0.125                 0.75 -0.000818703816814596 -0.000255985168016476  0.00056353007044714
198 1 Cu                 0.25                0.125                0.875 -0.00367901035261526 -0.00184027382089003  0.00184027382089565
199 1 Cu                0.375                    0                0.875 -0.00526868606328717 -3.66373598126302e-15  0.00179165522153947
200 1 Cu                  0.5                    0                 0.75 -3.57136195616725e-15 -2.02615701994091e-15 3.68857264689548e-05
201 1 Cu                0.625                0.125                 0.75 0.000818703816820027 -0.000255985168016504 0.000563530070447262
202 1 Cu                  0.5                0.125                0.875 -1.95416599568787e-15 -5.5417261745655e-05 5.54172617505191e-05
203 1 Cu                0.625                    0                0.875  0.00526868606329338 -1.33226762955019e-15  0.00179165522153955
204 1 Cu                 0.75                    0                 0.75   0.0158809063655985 -1.36002320516582e-15   0.0158809063655984
205 1 Cu                0.875                0.125                 0.75  0.00184027382089557 -0.00184027382088994  0.00367901035260956
206 1 Cu                 0.75                0.125                0.875  0.00367901035260962 -0.00184027382088998  0.00184027382089554
207 1 Cu                0.875                    0                0.875    0.117714058446585 -1.42941214420489e-15    0.117714058446585
208 1 Cu                    0                 0.25                 0.75 -3.48332473976143e-15  -0.0158809063656049   0.0158809063655985
209 1 Cu                0.125                0.375                 0.75 -0.000255985168016476 -0.000818703816814561  0.00056353007044714
210 1 Cu                    0                0.375                0.875 -3.5527136788005e-15 -0.00526868606328716   0.0017916552215395
211 1 Cu                0.125                 0.25                0.875 -0.00184027382089004 -0.00367901035261517  0.00184027382089563
212 1 Cu                 0.25                 0.25                 0.75 -0.00129008549235317 -0.00129008549235316  0.00129008549234752
213 1 Cu                0.375                0.375                 0.75 -1.45015179480092e-05 -1.45015179479555e-05 8.89983695011309e-06
214 1 Cu                 0.25                0.375                0.875 -0.00056353007045291 -0.000818703816814533 0.000255985168022058
215 1 Cu                0.375                 0.25                0.875 -0.000818703816814537 -0.000563530070452792 0.000255985168022057
216 1 Cu                  0.5                 0.25                 0.75 -2.02962646689286e-15 -8.6126417510198e-06 8.61264174611487e-06
217 1 Cu                0.625                0.375                 0.75 1.45015179535395e-05 -1.45015179479867e-05 8.89983695009922e-06
218 1 Cu                  0.5                0.375                0.875 -2.01574867908505e-15 -3.7013372754767e-06 4.65937419940124e-07
219 1 Cu                0.625                 0.25                0.875 0.000818703816820143 -0.000563530070452869 0.000255985168022086