ITEM: TIMESTEP
0
ITEM: NUMBER OF ATOMS
215
ITEM: BOX BOUNDS xy xz yz pp pp pp
0.0000000000000000e+00 3.0674292160000000e+01 7.6685730400000001e+00
0.0000000000000000e+00 1.7709810839999999e+01 7.6685730400000001e+00
0.0000000000000000e+00 1.2522727339999999e+01 4.4274527099999998e+00
ITEM: ATOMS id type x y z
1 1 0 0 0
2 1 1.2781 0.737909 2.08712
3 1 25.5619 14.7582 4.17424
4 1 19.1714 2.21373 6.26136
5 1 5.11238 2.95164 8.34848
6 1 21.7276 3.68954 10.4356
7 1 1.2781 2.21373 0
8 1 17.8933 2.95164 2.08712
9 1 19.1714 3.68954 4.17424
10 1 5.11238 4.42745 6.26136
11 1 21.7276 5.16536 8.34848
12 1 23.0057 5.90327 10.4356
13 1 17.8933 4.42745 0
14 1 19.1714 5.16536 2.08712
15 1 5.11238 5.90327 4.17424
16 1 21.7276 6.64118 6.26136
17 1 7.66857 7.37909 8.34848
18 1 24.2838 8.117 10.4356
19 1 19.1714 6.64118 0
20 1 5.11238 7.37909 2.08712
21 1 21.7276 8.117 4.17424
22 1 7.66857 8.85491 6.26136
23 1 8.94667 9.59281 8.34848
24 1 10.2248 10.3307 10.4356
25 1 5.11238 8.85491 0
26 1 21.7276 9.59281 2.08712
27 1 23.0057 10.3307 4.17424
28 1 8.94667 11.0686 6.26136
29 1 10.2248 11.8065 8.34848
30 1 26.84 12.5444 10.4356
31 1 21.7276 11.0686 0
32 1 7.66857 11.8065 2.08712
33 1 24.2838 12.5444 4.17424
34 1 10.2248 13.2824 6.26136
35 1 26.84 14.0203 8.34848
36 1 12.781 14.7582 10.4356
37 1 2.55619 0 0
38 1 3.83429 0.737909 2.08712
39 1 12.781 14.7582 4.17424
40 1 6.39048 2.21373 6.26136
41 1 7.66857 2.95164 8.34848
42 1 8.94667 3.68954 10.4356
43 1 3.83429 2.21373 0
44 1 5.11238 2.95164 2.08712
45 1 6.39048 3.68954 4.17424
46 1 7.66857 4.42745 6.26136
47 1 8.94667 5.16536 8.34848
48 1 10.2248 5.90327 10.4356
49 1 5.11238 4.42745 0
50 1 6.39048 5.16536 2.08712
51 1 7.66857 5.90327 4.17424
52 1 8.94667 6.64118 6.26136
53 1 10.2248 7.37909 8.34848
54 1 11.5029 8.117 10.4356
55 1 6.39048 6.64118 0
56 1 7.66857 7.37909 2.08712
57 1 8.94667 8.117 4.17424
58 1 10.2248 8.85491 6.26136
59 1 11.5029 9.59281 8.34848
60 1 12.781 10.3307 10.4356
61 1 7.66857 8.85491 0
62 1 8.94667 9.59281 2.08712
63 1 10.2248 10.3307 4.17424
64 1 11.5029 11.0686 6.26136
65 1 12.781 11.8065 8.34848
66 1 14.0591 12.5444 10.4356
67 1 8.94667 11.0686 0
68 1 10.2248 11.8065 2.08712
69 1 11.5029 12.5444 4.17424
70 1 12.781 13.2824 6.26136
71 1 14.0591 14.0203 8.34848
72 1 15.3371 14.7582 10.4356
73 1 5.11238 0 0
74 1 6.39048 0.737909 2.08712
75 1 15.3371 14.7582 4.17424
76 1 8.94667 2.21373 6.26136
77 1 10.2248 2.95164 8.34848
78 1 11.5029 3.68954 10.4356
79 1 6.39048 2.21373 0
80 1 7.66857 2.95164 2.08712
81 1 8.94667 3.68954 4.17424
82 1 10.2248 4.42745 6.26136
83 1 11.5029 5.16536 8.34848
84 1 12.781 5.90327 10.4356
85 1 7.66857 4.42745 0
86 1 8.94667 5.16536 2.08712
87 1 10.2248 5.90327 4.17424
88 1 11.5029 6.64118 6.26136
89 1 12.781 7.37909 8.34848
90 1 14.0591 8.117 10.4356
91 1 8.94667 6.64118 0
92 1 10.2248 7.37909 2.08712
93 1 11.5029 8.117 4.17424
94 1 12.781 8.85491 6.26136
95 1 14.0591 9.59281 8.34848
96 1 15.3371 10.3307 10.4356
97 1 10.2248 8.85491 0
98 1 11.5029 9.59281 2.08712
99 1 12.781 10.3307 4.17424
100 1 14.0591 11.0686 6.26136
101 1 15.3371 11.8065 8.34848
102 1 16.6152 12.5444 10.4356
103 1 11.5029 11.0686 0
104 1 12.781 11.8065 2.08712
105 1 14.0591 12.5444 4.17424
106 1 15.3371 13.2824 6.26136
107 1 16.6152 14.0203 8.34848
108 1 17.8933 14.7582 10.4356
109 1 7.66857 0 0
110 1 8.94667 0.737909 2.08712
111 1 17.8933 14.7582 4.17424
112 1 11.5029 2.21373 6.26136
113 1 12.781 2.95164 8.34848
114 1 14.0591 3.68954 10.4356
115 1 8.94667 2.21373 0
116 1 10.2248 2.95164 2.08712
117 1 11.5029 3.68954 4.17424
118 1 12.781 4.42745 6.26136
119 1 14.0591 5.16536 8.34848
120 1 15.3371 5.90327 10.4356
121 1 10.2248 4.42745 0
122 1 11.5029 5.16536 2.08712
123 1 12.781 5.90327 4.17424
124 1 14.0591 6.64118 6.26136
125 1 15.3371 7.37909 8.34848
126 1 16.6152 8.117 10.4356
127 1 11.5029 6.64118 0
128 1 12.781 7.37909 2.08712
129 1 14.0591 8.117 4.17424
130 1 16.6152 9.59281 8.34848
131 1 17.8933 10.3307 10.4356
132 1 12.781 8.85491 0
133 1 14.0591 9.59281 2.08712
134 1 15.3371 10.3307 4.17424
135 1 16.6152 11.0686 6.26136
136 1 17.8933 11.8065 8.34848
137 1 19.1714 12.5444 10.4356
138 1 14.0591 11.0686 0
139 1 15.3371 11.8065 2.08712
140 1 16.6152 12.5444 4.17424
141 1 17.8933 13.2824 6.26136
142 1 19.1714 14.0203 8.34848
143 1 20.4495 14.7582 10.4356
144 1 10.2248 0 0
145 1 11.5029 0.737909 2.08712
146 1 20.4495 14.7582 4.17424
147 1 14.0591 2.21373 6.26136
148 1 15.3371 2.95164 8.34848
149 1 16.6152 3.68954 10.4356
150 1 11.5029 2.21373 0
151 1 12.781 2.95164 2.08712
152 1 14.0591 3.68954 4.17424
153 1 15.3371 4.42745 6.26136
154 1 16.6152 5.16536 8.34848
155 1 17.8933 5.90327 10.4356
156 1 12.781 4.42745 0
157 1 14.0591 5.16536 2.08712
158 1 15.3371 5.90327 4.17424
159 1 16.6152 6.64118 6.26136
160 1 17.8933 7.37909 8.34848
161 1 19.1714 8.117 10.4356
162 1 14.0591 6.64118 0
163 1 15.3371 7.37909 2.08712
164 1 16.6152 8.117 4.17424
165 1 17.8933 8.85491 6.26136
166 1 19.1714 9.59281 8.34848
167 1 20.4495 10.3307 10.4356
168 1 15.3371 8.85491 0
169 1 16.6152 9.59281 2.08712
170 1 17.8933 10.3307 4.17424
171 1 19.1714 11.0686 6.26136
172 1 20.4495 11.8065 8.34848
173 1 21.7276 12.5444 10.4356
174 1 16.6152 11.0686 0
175 1 17.8933 11.8065 2.08712
176 1 19.1714 12.5444 4.17424
177 1 20.4495 13.2824 6.26136
178 1 21.7276 14.0203 8.34848
179 1 23.0057 14.7582 10.4356
180 1 12.781 0 0
181 1 14.0591 0.737909 2.08712
182 1 23.0057 14.7582 4.17424
183 1 16.6152 2.21373 6.26136
184 1 17.8933 2.95164 8.34848
185 1 19.1714 3.68954 10.4356
186 1 14.0591 2.21373 0
187 1 15.3371 2.95164 2.08712
188 1 16.6152 3.68954 4.17424
189 1 17.8933 4.42745 6.26136
190 1 19.1714 5.16536 8.34848
191 1 20.4495 5.90327 10.4356
192 1 15.3371 4.42745 0
193 1 16.6152 5.16536 2.08712
194 1 17.8933 5.90327 4.17424
195 1 19.1714 6.64118 6.26136
196 1 20.4495 7.37909 8.34848
197 1 21.7276 8.117 10.4356
198 1 16.6152 6.64118 0
199 1 17.8933 7.37909 2.08712
200 1 19.1714 8.117 4.17424
201 1 20.4495 8.85491 6.26136
202 1 21.7276 9.59281 8.34848
203 1 23.0057 10.3307 10.4356
204 1 17.8933 8.85491 0
205 1 19.1714 9.59281 2.08712
206 1 20.4495 10.3307 4.17424
207 1 21.7276 11.0686 6.26136
208 1 23.0057 11.8065 8.34848
209 1 24.2838 12.5444 10.4356
210 1 19.1714 11.0686 0
211 1 20.4495 11.8065 2.08712
212 1 21.7276 12.5444 4.17424
213 1 23.0057 13.2824 6.26136
214 1 24.2838 14.0203 8.34848
215 1 25.5619 14.7582 10.4356
