ITEM: TIMESTEP
23
ITEM: NUMBER OF ATOMS
215
ITEM: BOX BOUNDS xy xz yz pp pp pp
0.0000000000000000e+00 3.0674292160000000e+01 7.6685730400000001e+00
0.0000000000000000e+00 1.7709810839999999e+01 7.6685730400000001e+00
0.0000000000000000e+00 1.2522727339999999e+01 4.4274527099999998e+00
ITEM: ATOMS id type x y z
1 1 2.70433e-09 2.44986e-09 -4.1465e-11
2 1 1.28353 0.741048 2.096
3 1 25.5701 14.7629 4.18769
4 1 19.1714 2.21373 6.26136
5 1 5.10415 2.94688 8.33504
6 1 21.7222 3.6864 10.4267
7 1 1.28353 2.22314 -5.91246e-11
8 1 17.9001 2.96288 2.09507
9 1 19.1862 3.68518 4.17255
10 1 5.12241 4.42035 6.25191
11 1 21.7213 5.16902 8.33497
12 1 23.0057 5.90955 10.4267
13 1 17.9016 4.44171 9.1742e-12
14 1 19.1862 5.16231 2.08357
15 1 5.13044 5.89284 4.16687
16 1 21.7388 6.63604 6.25191
17 1 7.66857 7.3886 8.33504
18 1 24.2901 8.12852 10.4277
19 1 19.1714 6.64118 -1.14159e-10
20 1 5.12241 7.36781 2.08357
21 1 21.7388 8.10637 4.17255
22 1 7.66857 8.85491 6.26136
23 1 8.9355 9.60344 8.35018
24 1 10.2147 10.342 10.4392
25 1 5.10415 8.84064 1.92228e-11
26 1 21.7213 9.5813 2.09507
27 1 23.0057 10.3212 4.18769
28 1 8.9355 11.0738 6.27082
29 1 10.2067 11.817 8.35586
30 1 26.8252 12.5475 10.4392
31 1 21.7222 11.0592 1.39469e-12
32 1 7.66857 11.8003 2.096
33 1 24.2901 12.5408 4.18775
34 1 10.2147 13.2895 6.27082
35 1 26.8252 14.0246 8.35018
36 1 12.7741 14.7469 10.4277
37 1 2.56707 2.4152e-09 -6.49546e-11
38 1 3.84743 0.738182 2.09507
39 1 12.7846 14.7732 4.17255
40 1 6.38934 2.22597 6.25191
41 1 7.66857 2.94432 8.33497
42 1 8.95211 3.6864 10.4267
43 1 3.84743 2.22131 -0.00239347
44 1 5.11896 2.95543 2.08981
45 1 6.39414 3.69166 4.17125
46 1 7.66857 4.42745 6.25331
47 1 8.953 5.16902 8.33497
48 1 10.2419 5.91318 10.4216
49 1 5.116 4.43085 0.0146927
50 1 6.39414 5.16325 2.09011
51 1 7.66857 5.89904 4.17125
52 1 8.9355 6.63604 6.25191
53 1 10.2209 7.38864 8.33498
54 1 11.5092 8.13245 10.4388
55 1 6.38934 6.63635 0.0146927
56 1 7.66857 7.37149 2.08981
57 1 8.9355 8.10637 4.17255
58 1 10.162 8.85491 6.26136
59 1 11.4658 9.60717 8.36609
60 1 12.7496 10.3488 10.4869
61 1 7.66857 8.83973 -0.00239347
62 1 8.953 9.5813 2.09507
63 1 10.2209 10.3212 4.18775
64 1 11.4658 11.09 6.26903
65 1 12.75 11.8314 8.36609
66 1 14.0488 12.5313 10.4388
67 1 8.95211 11.0592 -4.52214e-11
68 1 10.2419 11.7966 2.10114
69 1 11.5092 12.5526 4.18775
70 1 12.7496 13.3367 6.26136
71 1 14.0488 14.0189 8.33498
72 1 15.3371 14.7383 10.4216
73 1 5.12885 2.47238e-09 -3.39881e-11
74 1 6.39523 0.752239 2.08357
75 1 15.3371 14.779 4.16687
76 1 8.94781 2.22597 6.25191
77 1 10.233 2.94688 8.33504
78 1 11.516 3.68927 10.4277
79 1 6.39523 2.21516 0.0146927
80 1 7.66857 2.95587 2.09011
81 1 8.943 3.69166 4.17125
82 1 10.2147 4.42035 6.25191
83 1 11.5092 5.1572 8.33498
84 1 12.7975 5.90101 10.4388
85 1 7.66857 4.42745 0.0221215
86 1 8.943 5.16325 2.09011
87 1 10.2067 5.89284 4.16687
88 1 11.4658 6.6198 6.2537
89 1 12.7487 7.36046 8.37483
90 1 14.053 8.11348 10.4785
91 1 8.94781 6.63635 0.0146927
92 1 10.2147 7.36781 2.08357
93 1 11.4658 8.10265 4.15664
94 1 12.5516 8.85491 6.26136
95 1 13.9444 9.65902 8.53576
96 1 15.3371 10.3378 10.4785
97 1 10.233 8.84064 -5.2974e-12
98 1 11.5092 9.57736 2.08393
99 1 12.7487 10.3494 4.1479
100 1 13.9444 11.2673 6.26136
101 1 15.3371 11.8438 8.37483
102 1 16.6255 12.5313 10.4388
103 1 11.516 11.061 0.00239347
104 1 12.7975 11.8088 2.08393
105 1 14.053 12.5837 4.15664
106 1 15.3371 13.3251 6.2537
107 1 16.6255 14.0189 8.33498
108 1 17.9001 14.7469 10.4277
109 1 7.66857 2.56659e-09 5.31708e-11
110 1 8.94191 0.752239 2.08357
111 1 17.8897 14.7732 4.17255
112 1 11.5029 2.21373 6.26136
113 1 12.7846 2.93665 8.35018
114 1 14.0638 3.67521 10.4392
115 1 8.94191 2.21516 0.0146927
116 1 10.2182 2.95543 2.08981
117 1 11.4881 3.68518 4.17255
118 1 12.7496 4.37309 6.26136
119 1 14.053 5.12612 8.36609
120 1 15.3371 5.86703 10.4869
121 1 10.2211 4.43085 0.0146927
122 1 11.4881 5.16231 2.08357
123 1 12.75 5.87838 4.15664
124 1 13.9444 6.44255 6.26136
125 1 15.3371 7.24667 8.53576
126 1 16.6213 8.11348 10.4785
127 1 11.5029 6.64118 -7.35904e-11
128 1 12.7496 7.36097 2.03587
129 1 13.9444 8.05079 3.98697
130 1 16.7299 9.65902 8.53576
131 1 17.9247 10.3488 10.4869
132 1 12.7846 8.8515 -0.0146927
133 1 14.053 9.59633 2.04425
134 1 15.3371 10.4631 3.98697
135 1 16.7299 11.2673 6.26136
136 1 17.9243 11.8314 8.36609
137 1 19.1862 12.5475 10.4392
138 1 14.0638 11.0672 -0.0146927
139 1 15.3371 11.8428 2.03587
140 1 16.6213 12.5837 4.15664
141 1 17.9247 13.3367 6.26136
142 1 19.1862 14.0246 8.35018
143 1 20.4561 14.7544 10.4329
144 1 10.2083 2.61826e-09 6.91623e-11
145 1 11.4897 0.738182 2.09507
146 1 20.4413 14.7629 4.18769
147 1 14.0579 2.20149 6.27082
148 1 15.3371 2.93078 8.35586
149 1 16.6105 3.67521 10.4392
150 1 11.4897 2.22131 -0.00239347
151 1 12.7741 2.96288 2.09507
152 1 14.0488 3.69093 4.18775
153 1 15.3371 4.38469 6.26903
154 1 16.6213 5.12612 8.36609
155 1 17.8768 5.90101 10.4388
156 1 12.7727 4.44171 9.70046e-11
157 1 14.0488 5.17856 2.08393
158 1 15.3371 5.86601 4.1479
159 1 16.7299 6.44255 6.26136
160 1 17.9256 7.36046 8.37483
161 1 19.1651 8.13245 10.4388
162 1 14.0579 6.64601 -0.0146927
163 1 15.3371 7.37206 2.04425
164 1 16.7299 8.05079 3.98697
165 1 18.1227 8.85491 6.26136
166 1 19.2085 9.60717 8.36609
167 1 20.4596 10.342 10.4392
168 1 15.3371 8.85491 -0.0221215
169 1 16.6213 9.59633 2.04425
170 1 17.9256 10.3494 4.1479
171 1 19.2085 11.09 6.26903
172 1 20.4676 11.817 8.35586
173 1 21.7313 12.5466 10.4326
174 1 16.6105 11.0672 -0.0146927
175 1 17.8768 11.8088 2.08393
176 1 19.1651 12.5526 4.18775
177 1 20.4596 13.2895 6.27082
178 1 21.7313 14.0182 8.35148
179 1 23.0057 14.7539 10.4326
180 1 12.7701 2.54799e-09 2.89427e-11
181 1 14.0536 0.741048 2.096
182 1 23.0057 14.7655 4.18775
183 1 16.6164 2.20149 6.27082
184 1 17.8897 2.93665 8.35018
185 1 19.1583 3.68927 10.4277
186 1 14.0536 2.22314 -8.21922e-12
187 1 15.3371 2.97146 2.10114
188 1 16.6255 3.69093 4.18775
189 1 17.9247 4.37309 6.26136
190 1 19.1651 5.1572 8.33498
191 1 20.4324 5.91318 10.4216
192 1 15.3371 4.44263 0.00239347
193 1 16.6255 5.17856 2.08393
194 1 17.9243 5.87838 4.15664
195 1 19.2085 6.6198 6.2537
196 1 20.4534 7.38864 8.33498
197 1 21.7213 8.12852 10.4277
198 1 16.6164 6.64601 -0.0146927
199 1 17.9247 7.36097 2.03587
200 1 19.2085 8.10265 4.15664
201 1 20.5123 8.85491 6.26136
202 1 21.7388 9.60344 8.35018
203 1 23.0057 10.3383 10.4329
204 1 17.8897 8.8515 -0.0146927
205 1 19.1651 9.57736 2.08393
206 1 20.4534 10.3212 4.18775
207 1 21.7388 11.0738 6.27082
208 1 23.0057 11.8108 8.35148
209 1 24.2801 12.5466 10.4326
210 1 19.1583 11.061 0.00239347
211 1 20.4324 11.7966 2.10114
212 1 21.7213 12.5408 4.18775
213 1 23.0057 13.2824 6.26942
214 1 24.2801 14.0182 8.35148
215 1 25.5553 14.7544 10.4329
