ITEM: TIMESTEP
57
ITEM: NUMBER OF ATOMS
215
ITEM: BOX BOUNDS xy xz yz pp pp pp
0.0000000000000000e+00 3.0674292160000000e+01 7.6685730400000001e+00
0.0000000000000000e+00 1.7709810839999999e+01 7.6685730400000001e+00
0.0000000000000000e+00 1.2522727339999999e+01 4.4274527099999998e+00
ITEM: ATOMS id type x y z
1 1 2.69918e-09 2.44865e-09 -4.24868e-11
2 1 1.28368 0.741135 2.09625
3 1 25.5703 14.763 4.18793
4 1 19.1714 2.21373 6.26136
5 1 5.104 2.9468 8.3348
6 1 21.722 3.68632 10.4265
7 1 1.28368 2.2234 -5.65616e-11
8 1 17.9003 2.96317 2.09528
9 1 19.1867 3.68498 4.17241
10 1 5.12282 4.42012 6.25169
11 1 21.7211 5.16911 8.33464
12 1 23.0057 5.90972 10.4265
13 1 17.9017 4.44197 -2.19725e-11
14 1 19.1867 5.16211 2.08343
15 1 5.13102 5.89251 4.16663
16 1 21.7392 6.63581 6.25169
17 1 7.66857 7.38877 8.3348
18 1 24.2903 8.1288 10.4275
19 1 19.1714 6.64118 -2.75292e-11
20 1 5.12282 7.36752 2.08343
21 1 21.7392 8.10609 4.17241
22 1 7.66857 8.85491 6.26136
23 1 8.9351 9.60372 8.35032
24 1 10.2143 10.3423 10.4393
25 1 5.104 8.84039 -1.21281e-11
26 1 21.7211 9.58101 2.09528
27 1 23.0057 10.321 4.18793
28 1 8.9351 11.074 6.27104
29 1 10.2061 11.8173 8.35609
30 1 26.8248 12.5477 10.4393
31 1 21.722 11.059 3.91048e-12
32 1 7.66857 11.8001 2.09625
33 1 24.2903 12.5407 4.18809
34 1 10.2143 13.2897 6.27104
35 1 26.8248 14.0248 8.35032
36 1 12.774 14.7466 10.4275
37 1 2.56737 2.40952e-09 -6.96237e-11
38 1 3.84776 0.738184 2.09528
39 1 12.7846 14.7736 4.17241
40 1 6.38934 2.22643 6.25169
41 1 7.66857 2.94413 8.33464
42 1 8.95226 3.68632 10.4265
43 1 3.84776 2.22151 -0.00245877
44 1 5.11909 2.95551 2.08986
45 1 6.39422 3.69171 4.17118
46 1 7.66857 4.42745 6.25315
47 1 8.95317 5.16911 8.33464
48 1 10.2424 5.91344 10.4212
49 1 5.11605 4.43088 0.015201
50 1 6.39422 5.1632 2.09018
51 1 7.66857 5.89895 4.17118
52 1 8.9351 6.63581 6.25169
53 1 10.2207 7.38882 8.33472
54 1 11.5093 8.13275 10.4389
55 1 6.38934 6.63629 0.015201
56 1 7.66857 7.37134 2.08986
57 1 8.9351 8.10609 4.17241
58 1 10.1603 8.85491 6.26136
59 1 11.465 9.60735 8.36655
60 1 12.7487 10.3493 10.4882
61 1 7.66857 8.83935 -0.00245877
62 1 8.95317 9.58101 2.09528
63 1 10.2207 10.321 4.188
64 1 11.465 11.0905 6.26905
65 1 12.7494 11.8321 8.36655
66 1 14.0486 12.531 10.4389
67 1 8.95226 11.059 -4.49331e-11
68 1 10.2424 11.7964 2.10151
69 1 11.5093 12.5528 4.188
70 1 12.7487 13.3382 6.26136
71 1 14.0486 14.0189 8.33472
72 1 15.3371 14.7378 10.4212
73 1 5.12914 2.46804e-09 -3.05609e-11
74 1 6.39528 0.752727 2.08343
75 1 15.3371 14.7797 4.16663
76 1 8.9478 2.22643 6.25169
77 1 10.2331 2.9468 8.3348
78 1 11.5163 3.68927 10.4275
79 1 6.39528 2.21519 0.015201
80 1 7.66857 2.95596 2.09018
81 1 8.94292 3.69171 4.17118
82 1 10.2143 4.42012 6.25169
83 1 11.5093 5.15702 8.33472
84 1 12.7978 5.90095 10.4389
85 1 7.66857 4.42745 0.0228264
86 1 8.94292 5.1632 2.09018
87 1 10.2061 5.89251 4.16663
88 1 11.465 6.6193 6.25368
89 1 12.748 7.36005 8.37541
90 1 14.0527 8.11332 10.4794
91 1 8.9478 6.63629 0.015201
92 1 10.2143 7.36752 2.08343
93 1 11.465 8.10246 4.15617
94 1 12.5461 8.85491 6.26136
95 1 13.9416 9.66061 8.54024
96 1 15.3371 10.3381 10.4794
97 1 10.2331 8.84039 -4.07996e-11
98 1 11.5093 9.57706 2.08384
99 1 12.748 10.3498 4.14732
100 1 13.9416 11.272 6.26136
101 1 15.3371 11.8446 8.37541
102 1 16.6257 12.531 10.4389
103 1 11.5163 11.0609 0.00245877
104 1 12.7978 11.8089 2.08384
105 1 14.0527 12.5845 4.15617
106 1 15.3371 13.3261 6.25368
107 1 16.6257 14.0189 8.33472
108 1 17.9003 14.7466 10.4275
109 1 7.66857 2.57886e-09 4.49037e-11
110 1 8.94187 0.752727 2.08343
111 1 17.8897 14.7736 4.17241
112 1 11.5029 2.21373 6.26136
113 1 12.7846 2.93616 8.35032
114 1 14.0638 3.67473 10.4393
115 1 8.94187 2.21519 0.015201
116 1 10.2181 2.95551 2.08986
117 1 11.4876 3.68498 4.17241
118 1 12.7487 4.37163 6.26136
119 1 14.0527 5.12527 8.36655
120 1 15.3371 5.86606 10.4882
121 1 10.2211 4.43088 0.015201
122 1 11.4876 5.16211 2.08343
123 1 12.7494 5.87772 4.15617
124 1 13.9416 6.43779 6.26136
125 1 15.3371 7.24349 8.54024
126 1 16.6216 8.11332 10.4794
127 1 11.5029 6.64118 2.59771e-11
128 1 12.7487 7.36048 2.03449
129 1 13.9416 8.0492 3.98248
130 1 16.7327 9.66061 8.54024
131 1 17.9256 10.3493 10.4882
132 1 12.7846 8.85148 -0.015201
133 1 14.0527 9.59649 2.0433
134 1 15.3371 10.4663 3.98248
135 1 16.7327 11.272 6.26136
136 1 17.9249 11.8321 8.36655
137 1 19.1867 12.5477 10.4393
138 1 14.0638 11.0672 -0.015201
139 1 15.3371 11.8438 2.03449
140 1 16.6216 12.5845 4.15617
141 1 17.9256 13.3382 6.26136
142 1 19.1867 14.0248 8.35032
143 1 20.4562 14.7543 10.4329
144 1 10.208 2.62051e-09 7.72502e-11
145 1 11.4894 0.738184 2.09528
146 1 20.4411 14.763 4.18793
147 1 14.0579 2.20102 6.27104
148 1 15.3371 2.93011 8.35609
149 1 16.6104 3.67473 10.4393
150 1 11.4894 2.22151 -0.00245877
151 1 12.774 2.96317 2.09528
152 1 14.0486 3.69093 4.188
153 1 15.3371 4.38369 6.26905
154 1 16.6216 5.12527 8.36655
155 1 17.8765 5.90095 10.4389
156 1 12.7726 4.44197 6.76642e-11
157 1 14.0486 5.1788 2.08384
158 1 15.3371 5.8652 4.14732
159 1 16.7327 6.43779 6.26136
160 1 17.9263 7.36005 8.37541
161 1 19.165 8.13275 10.4389
162 1 14.0579 6.64607 -0.015201
163 1 15.3371 7.37174 2.0433
164 1 16.7327 8.0492 3.98248
165 1 18.1282 8.85491 6.26136
166 1 19.2093 9.60735 8.36655
167 1 20.46 10.3423 10.4393
168 1 15.3371 8.85491 -0.0228264
169 1 16.6216 9.59649 2.0433
170 1 17.9263 10.3498 4.14732
171 1 19.2093 11.0905 6.26905
172 1 20.4682 11.8173 8.35609
173 1 21.7314 12.5466 10.4325
174 1 16.6104 11.0672 -0.015201
175 1 17.8765 11.8089 2.08384
176 1 19.165 12.5528 4.188
177 1 20.46 13.2897 6.27104
178 1 21.7314 14.0181 8.35154
179 1 23.0057 14.7539 10.4325
180 1 12.7698 2.54803e-09 2.8314e-11
181 1 14.0535 0.741135 2.09625
182 1 23.0057 14.7657 4.18809
183 1 16.6164 2.20102 6.27104
184 1 17.8897 2.93616 8.35032
185 1 19.158 3.68927 10.4275
186 1 14.0535 2.2234 -3.46558e-12
187 1 15.3371 2.97198 2.10151
188 1 16.6257 3.69093 4.188
189 1 17.9256 4.37163 6.26136
190 1 19.165 5.15702 8.33472
191 1 20.4319 5.91344 10.4212
192 1 15.3371 4.44301 0.00245877
193 1 16.6257 5.1788 2.08384
194 1 17.9249 5.87772 4.15617
195 1 19.2093 6.6193 6.25368
196 1 20.4535 7.38882 8.33472
197 1 21.7211 8.1288 10.4275
198 1 16.6164 6.64607 -0.015201
199 1 17.9256 7.36048 2.03449
200 1 19.2093 8.10246 4.15617
201 1 20.514 8.85491 6.26136
202 1 21.7392 9.60372 8.35032
203 1 23.0057 10.3385 10.4329
204 1 17.8897 8.85148 -0.015201
205 1 19.165 9.57706 2.08384
206 1 20.4535 10.321 4.188
207 1 21.7392 11.074 6.27104
208 1 23.0057 11.8109 8.35154
209 1 24.2801 12.5466 10.4325
210 1 19.158 11.0609 0.00245877
211 1 20.4319 11.7964 2.10151
212 1 21.7211 12.5407 4.18809
213 1 23.0057 13.2824 6.26958
214 1 24.2801 14.0181 8.35154
215 1 25.5552 14.7543 10.4329
