ITEM: TIMESTEP
0
ITEM: NUMBER OF ATOMS
215
ITEM: BOX BOUNDS xy xz yz pp pp pp
0.0000000000000000e+00 3.0674292160000000e+01 7.6685730400000001e+00
0.0000000000000000e+00 1.7709810839999999e+01 7.6685730400000001e+00
0.0000000000000000e+00 1.2522727339999999e+01 4.4274527099999998e+00
ITEM: ATOMS id type element x y z fx fy fz c_energy
1 1 Cu 0 0 0 4.54571e-10 1.69237e-09 -1.10343e-10 -3.5399
2 1 Cu 1.2781 0.737909 2.08712 -1.60768e-09 -2.80214e-09 1.79538e-09 -3.5399
3 1 Cu 25.5619 14.7582 4.17424 0.00019 0.000109697 0.000310263 -3.5399
4 1 Cu 19.1714 2.21373 6.26136 1.1289e-09 -2.2936e-09 -9.63571e-10 -3.5399
5 1 Cu 5.11238 2.95164 8.34848 -0.000189999 -0.000109693 -0.000310263 -3.5399
6 1 Cu 21.7276 3.68954 10.4356 2.52976e-09 -2.32625e-09 -2.53708e-09 -3.5399
7 1 Cu 1.2781 2.21373 0 -1.60768e-09 -2.51829e-09 -7.7474e-10 -3.5399
8 1 Cu 17.8933 2.95164 2.08712 -0.000514062 0.000875083 0.000618778 -3.5399
9 1 Cu 19.1714 3.68954 4.17424 -0.000829743 0.000728511 0.000477674 -3.5399
10 1 Cu 5.11238 4.42745 6.26136 -0.0010152 0.000621444 0.000174833 -3.5399
11 1 Cu 21.7276 5.16536 8.34848 -0.00101487 0.000585936 -0.000199042 -3.5399
12 1 Cu 23.0057 5.90327 10.4356 1.90911e-09 1.59746e-09 -2.03729e-09 -3.5399
13 1 Cu 17.8933 4.42745 0 0.00019 0.000329088 8.1346e-11 -3.5399
14 1 Cu 19.1714 5.16536 2.08712 -0.000829743 0.000693193 0.000527625 -3.5399
15 1 Cu 5.11238 5.90327 4.17424 -0.00013812 7.97446e-05 5.63844e-05 -3.5399
16 1 Cu 21.7276 6.64118 6.26136 -0.00104578 0.000568463 0.000174832 -3.5399
17 1 Cu 7.66857 7.37909 8.34848 1.61499e-09 0.000219392 -0.000310263 -3.5399
18 1 Cu 24.2838 8.117 10.4356 0.00101487 -7.65569e-06 -0.000618778 -3.5399
19 1 Cu 19.1714 6.64118 0 1.13207e-09 -2.90873e-09 -1.0244e-10 -3.5399
20 1 Cu 5.11238 7.37909 2.08712 -0.0010152 0.000371983 0.000527626 -3.5399
21 1 Cu 21.7276 8.117 4.17424 -0.00104578 0.00035432 0.000477674 -3.5399
22 1 Cu 7.66857 8.85491 6.26136 1.60127e-09 1.8322e-09 -1.13715e-11 -3.5399
23 1 Cu 8.94667 9.59281 8.34848 0.00104578 -0.000354325 -0.000477675 -3.5399
24 1 Cu 10.2248 10.3307 10.4356 0.0010152 -0.000371979 -0.000527626 -3.5399
25 1 Cu 5.11238 8.85491 0 -0.000189999 -0.000329084 -1.22627e-10 -3.5399
26 1 Cu 21.7276 9.59281 2.08712 -0.00101487 7.65047e-06 0.000618777 -3.5399
27 1 Cu 23.0057 10.3307 4.17424 1.61499e-09 -0.000219389 0.000310263 -3.5399
28 1 Cu 8.94667 11.0686 6.26136 0.00104578 -0.000568468 -0.000174833 -3.5399
29 1 Cu 10.2248 11.8065 8.34848 0.000138116 -7.97401e-05 -5.63839e-05 -3.5399
30 1 Cu 26.84 12.5444 10.4356 0.000829746 -0.000693199 -0.000527626 -3.5399
31 1 Cu 21.7276 11.0686 0 2.52976e-09 -2.35502e-09 -3.27708e-10 -3.5399
32 1 Cu 7.66857 11.8065 2.08712 1.90911e-09 1.88865e-09 1.88829e-09 -3.5399
33 1 Cu 24.2838 12.5444 4.17424 0.00101487 -0.000585941 0.00019904 -3.5399
34 1 Cu 10.2248 13.2824 6.26136 0.0010152 -0.00062144 -0.000174832 -3.5399
35 1 Cu 26.84 14.0203 8.34848 0.000829746 -0.000728516 -0.000477675 -3.5399
36 1 Cu 12.781 14.7582 10.4356 0.000514064 -0.000875079 -0.000618778 -3.5399
37 1 Cu 2.55619 0 0 3.13962e-09 2.21451e-09 2.58864e-10 -3.5399
38 1 Cu 3.83429 0.737909 2.08712 0.00050081 -0.000882735 0.000618777 -3.5399
39 1 Cu 12.781 14.7582 4.17424 0.000216037 -0.00108283 0.000477675 -3.5399
40 1 Cu 6.39048 2.21373 6.26136 3.05892e-05 -0.00118991 0.000174832 -3.5399
41 1 Cu 7.66857 2.95164 8.34848 1.26919e-09 -0.00117187 -0.000199041 -3.5399
42 1 Cu 8.94667 3.68954 10.4356 -1.04902e-09 -2.4064e-09 -2.94009e-09 -3.5399
43 1 Cu 3.83429 2.21373 0 0.00050081 0.00028914 -0.00103851 -3.5399
44 1 Cu 5.11238 2.95164 2.08712 -2.50554e-09 2.31939e-09 2.50119e-09 -3.5399
45 1 Cu 6.39048 3.68954 4.17424 -0.000361749 -0.00020886 0.000295367 -3.5399
46 1 Cu 7.66857 4.42745 6.26136 8.38234e-10 2.3521e-09 3.35469e-10 -3.5399
47 1 Cu 8.94667 5.16536 8.34848 0.00101487 0.000585936 -0.000199042 -3.5399
48 1 Cu 10.2248 5.90327 10.4356 0.000993896 0.00057383 -0.000811517 -3.5399
49 1 Cu 5.11238 4.42745 0 0.000216037 8.94151e-05 -0.00118013 -3.5399
50 1 Cu 6.39048 5.16536 2.08712 -0.000361749 0.000208855 -0.000295367 -3.5399
51 1 Cu 7.66857 5.90327 4.17424 8.40821e-10 0.000417717 0.000295367 -3.5399
52 1 Cu 8.94667 6.64118 6.26136 0.00104578 0.000568463 0.000174832 -3.5399
53 1 Cu 10.2248 7.37909 8.34848 -0.00201347 -0.000545654 0.000771676 -3.5399
54 1 Cu 11.5029 8.117 10.4356 -0.00147929 -0.000237247 0.00164399 -3.5399
55 1 Cu 6.39048 6.64118 0 3.05892e-05 -0.000231805 -0.00118013 -3.5399
56 1 Cu 7.66857 7.37909 2.08712 8.38234e-10 2.33282e-09 2.5319e-09 -3.5399
57 1 Cu 8.94667 8.117 4.17424 0.00104578 0.000354319 0.000477674 -3.5399
58 1 Cu 10.2248 8.85491 6.26136 0.0051894 2.15597e-09 2.11656e-10 -3.54062
59 1 Cu 11.5029 9.59281 8.34848 0.00931692 -0.00179771 -0.00506983 -3.54485
60 1 Cu 12.781 10.3307 10.4356 0.0025947 -0.00149805 -0.00423713 -3.54062
61 1 Cu 7.66857 8.85491 0 1.26919e-09 -0.000578283 -0.00103851 -3.5399
62 1 Cu 8.94667 9.59281 2.08712 0.00101487 7.65036e-06 0.000618777 -3.5399
63 1 Cu 10.2248 10.3307 4.17424 -0.00201347 0.000545658 -0.000771676 -3.5399
64 1 Cu 11.5029 11.0686 6.26136 0.00931692 -0.00537912 -4.95386e-06 -3.54485
65 1 Cu 12.781 11.8065 8.34848 0.00621532 -0.00716983 -0.00506983 -3.54485
66 1 Cu 14.0591 12.5444 10.4356 -0.000534187 0.00139972 0.00164399 -3.5399
67 1 Cu 8.94667 11.0686 0 -1.04901e-09 -2.76169e-09 -2.68934e-10 -3.5399
68 1 Cu 10.2248 11.8065 2.08712 0.000993896 -0.000573826 0.000811517 -3.5399
69 1 Cu 11.5029 12.5444 4.17424 -0.00147929 0.00147089 -0.000771677 -3.5399
70 1 Cu 12.781 13.2824 6.26136 0.0025947 -0.00449415 6.77938e-10 -3.54062
71 1 Cu 14.0591 14.0203 8.34848 -0.000534187 0.00201654 0.000771676 -3.5399
72 1 Cu 15.3371 14.7582 10.4356 1.76686e-09 -0.00114765 -0.000811517 -3.5399
73 1 Cu 5.11238 0 0 0.000379993 1.90416e-09 3.62163e-11 -3.5399
74 1 Cu 6.39048 0.737909 2.08712 0.000185457 -0.00106518 0.000527626 -3.5399
75 1 Cu 15.3371 14.7582 4.17424 1.13931e-09 -0.000159482 5.63845e-05 -3.5399
76 1 Cu 8.94667 2.21373 6.26136 -3.05872e-05 -0.00118991 0.000174832 -3.5399
77 1 Cu 10.2248 2.95164 8.34848 0.000189995 -0.000109693 -0.000310263 -3.5399
78 1 Cu 11.5029 3.68954 10.4356 0.000500812 0.000882731 -0.000618778 -3.5399
79 1 Cu 6.39048 2.21373 0 0.000185457 0.000142387 -0.00118013 -3.5399
80 1 Cu 7.66857 2.95164 2.08712 7.14382e-10 -0.000417713 -0.000295367 -3.5399
81 1 Cu 8.94667 3.68954 4.17424 0.000361751 -0.00020886 0.000295367 -3.5399
82 1 Cu 10.2248 4.42745 6.26136 0.00101519 0.000621445 0.000174833 -3.5399
83 1 Cu 11.5029 5.16536 8.34848 -0.00147929 -0.00147089 0.000771675 -3.5399
84 1 Cu 12.781 5.90327 10.4356 -0.000945104 -0.00116248 0.00164399 -3.5399
85 1 Cu 7.66857 4.42745 0 1.13931e-09 2.40643e-09 -0.000169158 -3.5399
86 1 Cu 8.94667 5.16536 2.08712 0.000361751 0.000208855 -0.000295367 -3.5399
87 1 Cu 10.2248 5.90327 4.17424 0.000138115 7.97447e-05 5.63845e-05 -3.5399
88 1 Cu 11.5029 6.64118 6.26136 0.00931692 0.00537912 4.95317e-06 -3.54485
89 1 Cu 12.781 7.37909 8.34848 -0.00749725 -0.00432854 0.00612148 -3.54869
90 1 Cu 14.0591 8.117 10.4356 0.00310159 0.0017907 -0.0101446 -3.54485
91 1 Cu 8.94667 6.64118 0 -3.05872e-05 -0.000231804 -0.00118013 -3.5399
92 1 Cu 10.2248 7.37909 2.08712 0.00101519 0.000371983 0.000527626 -3.5399
93 1 Cu 11.5029 8.117 4.17424 0.00931692 0.00179771 0.00506983 -3.54485
94 1 Cu 12.781 8.85491 6.26136 -0.0681646 2.05628e-09 2.85186e-10 -3.52549
95 1 Cu 14.0591 9.59281 8.34848 -0.0340823 0.0196774 0.0556562 -3.52549
96 1 Cu 15.3371 10.3307 10.4356 2.24379e-09 -0.00358141 -0.0101446 -3.54485
97 1 Cu 10.2248 8.85491 0 0.000189995 -0.000329083 3.83998e-10 -3.5399
98 1 Cu 11.5029 9.59281 2.08712 -0.00147929 0.000237242 -0.00164399 -3.5399
99 1 Cu 12.781 10.3307 4.17424 -0.00749725 0.00432854 -0.00612148 -3.54869
100 1 Cu 14.0591 11.0686 6.26136 -0.0340823 0.0590323 -2.86089e-10 -3.52549
101 1 Cu 15.3371 11.8065 8.34848 2.64931e-09 0.00865709 0.00612148 -3.54869
102 1 Cu 16.6152 12.5444 10.4356 0.000534185 0.00139972 0.00164399 -3.5399
103 1 Cu 11.5029 11.0686 0 0.000500812 -0.000289145 0.00103851 -3.5399
104 1 Cu 12.781 11.8065 2.08712 -0.000945104 0.00116248 -0.00164399 -3.5399
105 1 Cu 14.0591 12.5444 4.17424 0.00310159 -0.00896754 0.00506983 -3.54485
106 1 Cu 15.3371 13.2824 6.26136 2.24379e-09 -0.0107582 4.95375e-06 -3.54485
107 1 Cu 16.6152 14.0203 8.34848 0.000534185 0.00201654 0.000771676 -3.5399
108 1 Cu 17.8933 14.7582 10.4356 -0.000514067 -0.000875078 -0.000618777 -3.5399
109 1 Cu 7.66857 0 0 1.56316e-09 2.77717e-09 6.50323e-10 -3.5399
110 1 Cu 8.94667 0.737909 2.08712 -0.000185455 -0.00106518 0.000527626 -3.5399
111 1 Cu 17.8933 14.7582 4.17424 -0.000216043 -0.00108283 0.000477675 -3.5399
112 1 Cu 11.5029 2.21373 6.26136 2.55672e-09 -2.3606e-09 -3.86462e-10 -3.5399
113 1 Cu 12.781 2.95164 8.34848 0.00021604 0.00108284 -0.000477675 -3.5399
114 1 Cu 14.0591 3.68954 10.4356 0.000185451 0.00106517 -0.000527626 -3.5399
115 1 Cu 8.94667 2.21373 0 -0.000185455 0.000142388 -0.00118013 -3.5399
116 1 Cu 10.2248 2.95164 2.08712 -2.74385e-09 2.29937e-09 2.48703e-09 -3.5399
117 1 Cu 11.5029 3.68954 4.17424 0.000829746 0.000728512 0.000477674 -3.5399
118 1 Cu 12.781 4.42745 6.26136 0.0025947 0.00449415 2.83089e-10 -3.54062
119 1 Cu 14.0591 5.16536 8.34848 0.00310159 0.00896754 -0.00506983 -3.54485
120 1 Cu 15.3371 5.90327 10.4356 2.23762e-09 0.0029961 -0.00423713 -3.54062
121 1 Cu 10.2248 4.42745 0 -0.000216043 8.94151e-05 -0.00118013 -3.5399
122 1 Cu 11.5029 5.16536 2.08712 0.000829746 0.000693194 0.000527626 -3.5399
123 1 Cu 12.781 5.90327 4.17424 0.00621532 0.00716983 0.00506983 -3.54485
124 1 Cu 14.0591 6.64118 6.26136 -0.0340823 -0.0590323 -2.70968e-10 -3.52549
125 1 Cu 15.3371 7.37909 8.34848 2.4601e-09 -0.0393548 0.0556562 -3.52549
126 1 Cu 16.6152 8.117 10.4356 -0.00310159 0.0017907 -0.0101446 -3.54485
127 1 Cu 11.5029 6.64118 0 2.55356e-09 -2.38695e-09 -3.57973e-10 -3.5399
128 1 Cu 12.781 7.37909 2.08712 0.0025947 0.00149805 0.00423713 -3.54062
129 1 Cu 14.0591 8.117 4.17424 -0.0340823 -0.0196774 -0.0556562 -3.52549
130 1 Cu 16.6152 9.59281 8.34848 0.0340823 0.0196774 0.0556562 -3.52549
131 1 Cu 17.8933 10.3307 10.4356 -0.0025947 -0.00149805 -0.00423713 -3.54062
132 1 Cu 12.781 8.85491 0 0.00021604 -8.94106e-05 0.00118013 -3.5399
133 1 Cu 14.0591 9.59281 2.08712 0.00310159 -0.00179071 0.0101446 -3.54485
134 1 Cu 15.3371 10.3307 4.17424 2.46011e-09 0.0393548 -0.0556562 -3.52549
135 1 Cu 16.6152 11.0686 6.26136 0.0340823 0.0590323 -2.74872e-10 -3.52549
136 1 Cu 17.8933 11.8065 8.34848 -0.00621532 -0.00716983 -0.00506983 -3.54485
137 1 Cu 19.1714 12.5444 10.4356 -0.000829741 -0.000693198 -0.000527626 -3.5399
138 1 Cu 14.0591 11.0686 0 0.000185451 -0.000142392 0.00118013 -3.5399
139 1 Cu 15.3371 11.8065 2.08712 2.23762e-09 -0.0029961 0.00423713 -3.54062
140 1 Cu 16.6152 12.5444 4.17424 -0.00310159 -0.00896754 0.00506983 -3.54485
141 1 Cu 17.8933 13.2824 6.26136 -0.0025947 -0.00449415 3.66605e-10 -3.54062
142 1 Cu 19.1714 14.0203 8.34848 -0.000829741 -0.000728516 -0.000477675 -3.5399
143 1 Cu 20.4495 14.7582 10.4356 1.26541e-09 2.25157e-09 -1.88629e-09 -3.5399
144 1 Cu 10.2248 0 0 -0.000379998 2.47546e-09 4.40183e-10 -3.5399
145 1 Cu 11.5029 0.737909 2.08712 -0.000500807 -0.000882736 0.000618777 -3.5399
146 1 Cu 20.4495 14.7582 4.17424 -0.000189998 0.000109698 0.000310263 -3.5399
147 1 Cu 14.0591 2.21373 6.26136 3.05839e-05 0.0011899 -0.000174833 -3.5399
148 1 Cu 15.3371 2.95164 8.34848 2.85795e-09 0.000159487 -5.63838e-05 -3.5399
149 1 Cu 16.6152 3.68954 10.4356 -0.000185453 0.00106518 -0.000527626 -3.5399
150 1 Cu 11.5029 2.21373 0 -0.000500807 0.00028914 -0.00103851 -3.5399
151 1 Cu 12.781 2.95164 2.08712 0.000514065 0.000875083 0.000618778 -3.5399
152 1 Cu 14.0591 3.68954 4.17424 -0.000534187 -0.00201655 -0.000771676 -3.5399
153 1 Cu 15.3371 4.42745 6.26136 2.5161e-09 0.0107582 -4.95306e-06 -3.54485
154 1 Cu 16.6152 5.16536 8.34848 -0.00310159 0.00896754 -0.00506983 -3.54485
155 1 Cu 17.8933 5.90327 10.4356 0.000945101 -0.00116248 0.00164399 -3.5399
156 1 Cu 12.781 4.42745 0 -0.000189998 0.000329088 6.04623e-10 -3.5399
157 1 Cu 14.0591 5.16536 2.08712 -0.000534187 -0.00139973 -0.00164399 -3.5399
158 1 Cu 15.3371 5.90327 4.17424 2.44955e-09 -0.00865708 -0.00612148 -3.54869
159 1 Cu 16.6152 6.64118 6.26136 0.0340823 -0.0590323 -2.85427e-10 -3.52549
160 1 Cu 17.8933 7.37909 8.34848 0.00749725 -0.00432854 0.00612148 -3.54869
161 1 Cu 19.1714 8.117 10.4356 0.00147929 -0.000237246 0.00164399 -3.5399
162 1 Cu 14.0591 6.64118 0 3.05839e-05 0.0002318 0.00118013 -3.5399
163 1 Cu 15.3371 7.37909 2.08712 2.51609e-09 0.00358141 0.0101446 -3.54485
164 1 Cu 16.6152 8.117 4.17424 0.0340823 -0.0196774 -0.0556562 -3.52549
165 1 Cu 17.8933 8.85491 6.26136 0.0681646 2.06254e-09 2.89615e-10 -3.52549
166 1 Cu 19.1714 9.59281 8.34848 -0.00931691 -0.00179771 -0.00506983 -3.54485
167 1 Cu 20.4495 10.3307 10.4356 -0.0010152 -0.000371979 -0.000527625 -3.5399
168 1 Cu 15.3371 8.85491 0 2.85795e-09 2.3695e-09 0.000169159 -3.5399
169 1 Cu 16.6152 9.59281 2.08712 -0.00310159 -0.00179071 0.0101446 -3.54485
170 1 Cu 17.8933 10.3307 4.17424 0.00749725 0.00432854 -0.00612148 -3.54869
171 1 Cu 19.1714 11.0686 6.26136 -0.00931691 -0.00537912 -4.95373e-06 -3.54485
172 1 Cu 20.4495 11.8065 8.34848 -0.000138117 -7.974e-05 -5.63839e-05 -3.5399
173 1 Cu 21.7276 12.5444 10.4356 -0.000361753 -0.00020886 0.000295366 -3.5399
174 1 Cu 16.6152 11.0686 0 -0.000185453 -0.000142392 0.00118013 -3.5399
175 1 Cu 17.8933 11.8065 2.08712 0.000945101 0.00116248 -0.00164399 -3.5399
176 1 Cu 19.1714 12.5444 4.17424 0.00147929 0.00147089 -0.000771676 -3.5399
177 1 Cu 20.4495 13.2824 6.26136 -0.0010152 -0.00062144 -0.000174832 -3.5399
178 1 Cu 21.7276 14.0203 8.34848 -0.000361753 0.000208855 -0.000295367 -3.5399
179 1 Cu 23.0057 14.7582 10.4356 -3.20486e-09 0.000417717 0.000295367 -3.5399
180 1 Cu 12.781 0 0 -1.06898e-09 2.83317e-09 6.96323e-10 -3.5399
181 1 Cu 14.0591 0.737909 2.08712 -2.68437e-09 -2.3471e-09 1.83103e-09 -3.5399
182 1 Cu 23.0057 14.7582 4.17424 2.01574e-09 0.00117188 0.000199041 -3.5399
183 1 Cu 16.6152 2.21373 6.26136 -3.05863e-05 0.00118991 -0.000174832 -3.5399
184 1 Cu 17.8933 2.95164 8.34848 -0.000216043 0.00108284 -0.000477674 -3.5399
185 1 Cu 19.1714 3.68954 10.4356 -0.000500808 0.000882731 -0.000618778 -3.5399
186 1 Cu 14.0591 2.21373 0 -2.68437e-09 -2.333e-09 -3.57604e-10 -3.5399
187 1 Cu 15.3371 2.95164 2.08712 2.03511e-09 0.00114766 0.000811518 -3.5399
188 1 Cu 16.6152 3.68954 4.17424 0.000534183 -0.00201655 -0.000771676 -3.5399
189 1 Cu 17.8933 4.42745 6.26136 -0.0025947 0.00449415 3.45024e-10 -3.54062
190 1 Cu 19.1714 5.16536 8.34848 0.00147929 -0.00147089 0.000771676 -3.5399
191 1 Cu 20.4495 5.90327 10.4356 -0.0009939 0.000573831 -0.000811517 -3.5399
192 1 Cu 15.3371 4.42745 0 2.01574e-09 0.000578288 0.00103851 -3.5399
193 1 Cu 16.6152 5.16536 2.08712 0.000534184 -0.00139972 -0.00164399 -3.5399
194 1 Cu 17.8933 5.90327 4.17424 -0.00621532 0.00716983 0.00506983 -3.54485
195 1 Cu 19.1714 6.64118 6.26136 -0.00931691 0.00537912 4.95326e-06 -3.54485
196 1 Cu 20.4495 7.37909 8.34848 0.00201347 -0.000545653 0.000771677 -3.5399
197 1 Cu 21.7276 8.117 10.4356 -0.00101488 -7.65473e-06 -0.000618778 -3.5399
198 1 Cu 16.6152 6.64118 0 -3.05863e-05 0.000231801 0.00118013 -3.5399
199 1 Cu 17.8933 7.37909 2.08712 -0.0025947 0.00149805 0.00423713 -3.54062
200 1 Cu 19.1714 8.117 4.17424 -0.00931691 0.00179771 0.00506983 -3.54485
201 1 Cu 20.4495 8.85491 6.26136 -0.0051894 2.9199e-09 7.5184e-10 -3.54062
202 1 Cu 21.7276 9.59281 8.34848 -0.00104578 -0.000354324 -0.000477675 -3.5399
203 1 Cu 23.0057 10.3307 10.4356 -2.57472e-09 2.15337e-09 -1.57901e-09 -3.5399
204 1 Cu 17.8933 8.85491 0 -0.000216043 -8.94103e-05 0.00118013 -3.5399
205 1 Cu 19.1714 9.59281 2.08712 0.00147929 0.000237242 -0.00164399 -3.5399
206 1 Cu 20.4495 10.3307 4.17424 0.00201347 0.000545659 -0.000771675 -3.5399
207 1 Cu 21.7276 11.0686 6.26136 -0.00104578 -0.000568467 -0.000174832 -3.5399
208 1 Cu 23.0057 11.8065 8.34848 -2.53722e-09 -0.000417713 -0.000295367 -3.5399
209 1 Cu 24.2838 12.5444 10.4356 0.000361753 -0.00020886 0.000295367 -3.5399
210 1 Cu 19.1714 11.0686 0 -0.000500808 -0.000289145 0.00103851 -3.5399
211 1 Cu 20.4495 11.8065 2.08712 -0.0009939 -0.000573825 0.000811518 -3.5399
212 1 Cu 21.7276 12.5444 4.17424 -0.00101488 -0.00058594 0.000199041 -3.5399
213 1 Cu 23.0057 13.2824 6.26136 -2.57472e-09 2.50782e-09 8.99275e-11 -3.5399
214 1 Cu 24.2838 14.0203 8.34848 0.000361753 0.000208856 -0.000295367 -3.5399
215 1 Cu 25.5619 14.7582 10.4356 -1.31199e-09 2.35999e-09 -1.80962e-09 -3.5399
ITEM: TIMESTEP
57
ITEM: NUMBER OF ATOMS
215
ITEM: BOX BOUNDS xy xz yz pp pp pp
0.0000000000000000e+00 3.0674292160000000e+01 7.6685730400000001e+00
0.0000000000000000e+00 1.7709810839999999e+01 7.6685730400000001e+00
0.0000000000000000e+00 1.2522727339999999e+01 4.4274527099999998e+00
ITEM: ATOMS id type element x y z fx fy fz c_energy
1 1 Cu 2.69918e-09 2.44865e-09 -4.24868e-11 3.54483e-12 2.54554e-12 1.73039e-12 -3.53879
2 1 Cu 1.28368 0.741135 2.09625 2.01995e-06 1.16622e-06 3.29856e-06 -3.53803
3 1 Cu 25.5703 14.763 4.18793 2.06506e-06 1.19226e-06 3.37222e-06 -3.5398
4 1 Cu 19.1714 2.21373 6.26136 1.62854e-12 1.31733e-12 5.05707e-13 -3.54137
5 1 Cu 5.104 2.9468 8.3348 -2.06505e-06 -1.19226e-06 -3.37221e-06 -3.5398
6 1 Cu 21.722 3.68632 10.4265 -2.01994e-06 -1.16622e-06 -3.29855e-06 -3.53803
7 1 Cu 1.28368 2.2234 -5.65616e-11 2.01995e-06 3.49865e-06 2.17732e-12 -3.53803
8 1 Cu 17.9003 2.96317 2.09528 3.71377e-06 2.81226e-06 1.98857e-06 -3.53866
9 1 Cu 19.1867 3.68498 4.17241 4.72262e-06 -6.26858e-07 -2.56505e-07 -3.53984
10 1 Cu 5.12282 4.42012 6.25169 2.75171e-06 -1.76477e-06 -3.47499e-06 -3.53984
11 1 Cu 21.7211 5.16911 8.33464 -5.78604e-07 3.34058e-07 -5.02083e-06 -3.53866
12 1 Cu 23.0057 5.90972 10.4265 2.48331e-12 2.33243e-06 -3.29855e-06 -3.53803
13 1 Cu 17.9017 4.44197 -2.19725e-11 2.06506e-06 3.57678e-06 1.88333e-12 -3.5398
14 1 Cu 19.1867 5.16211 2.08343 4.72262e-06 -4.50788e-07 -5.05505e-07 -3.53984
15 1 Cu 5.13102 5.89251 4.16663 5.23275e-06 -3.02112e-06 -2.13626e-06 -3.53847
16 1 Cu 21.7392 6.63581 6.25169 2.90419e-06 -1.50066e-06 -3.47499e-06 -3.53984
17 1 Cu 7.66857 7.38877 8.3348 -6.98365e-13 2.38452e-06 -3.37221e-06 -3.5398
18 1 Cu 24.2903 8.1288 10.4275 5.78606e-07 4.62234e-06 -1.98856e-06 -3.53866
19 1 Cu 19.1714 6.64118 -2.75292e-11 1.55022e-12 1.03827e-12 1.10411e-12 -3.54137
20 1 Cu 5.12282 7.36752 2.08343 2.75171e-06 -3.86451e-06 -5.05507e-07 -3.53984
21 1 Cu 21.7392 8.10609 4.17241 2.90419e-06 -3.77647e-06 -2.56506e-07 -3.53984
22 1 Cu 7.66857 8.85491 6.26136 -2.60945e-12 1.2074e-12 7.94267e-13 -3.54137
23 1 Cu 8.9351 9.60372 8.35032 -2.90419e-06 3.77647e-06 2.56508e-07 -3.53984
24 1 Cu 10.2143 10.3423 10.4393 -2.7517e-06 3.86451e-06 5.05509e-07 -3.53984
25 1 Cu 5.104 8.84039 -1.21281e-11 -2.06505e-06 -3.57677e-06 -6.91723e-13 -3.5398
26 1 Cu 21.7211 9.58101 2.09528 -5.78604e-07 -4.62234e-06 1.98856e-06 -3.53866
27 1 Cu 23.0057 10.321 4.18793 -6.98316e-13 -2.38451e-06 3.37222e-06 -3.5398
28 1 Cu 8.9351 11.074 6.27104 -2.90419e-06 1.50066e-06 3.47499e-06 -3.53984
29 1 Cu 10.2061 11.8173 8.35609 -5.23275e-06 3.02113e-06 2.13626e-06 -3.53847
30 1 Cu 26.8248 12.5477 10.4393 -4.72262e-06 4.5079e-07 5.05507e-07 -3.53984
31 1 Cu 21.722 11.059 3.91048e-12 -2.01994e-06 -3.49865e-06 -2.0332e-13 -3.53803
32 1 Cu 7.66857 11.8001 2.09625 2.48343e-12 -2.33243e-06 3.29856e-06 -3.53803
33 1 Cu 24.2903 12.5407 4.18809 5.78606e-07 -3.34055e-07 5.02084e-06 -3.53866
34 1 Cu 10.2143 13.2897 6.27104 -2.7517e-06 1.76477e-06 3.47499e-06 -3.53984
35 1 Cu 26.8248 14.0248 8.35032 -4.72262e-06 6.2686e-07 2.56506e-07 -3.53984
36 1 Cu 12.774 14.7466 10.4275 -3.71376e-06 -2.81226e-06 -1.98857e-06 -3.53866
37 1 Cu 2.56737 2.40952e-09 -6.96237e-11 4.03989e-06 3.53489e-12 2.39396e-12 -3.53803
38 1 Cu 3.84776 0.738184 2.09528 4.29237e-06 1.81009e-06 1.98857e-06 -3.53866
39 1 Cu 12.7846 14.7736 4.17241 1.81844e-06 4.40334e-06 -2.56505e-07 -3.53984
40 1 Cu 6.38934 2.22643 6.25169 -1.52478e-07 3.26543e-06 -3.47499e-06 -3.53984
41 1 Cu 7.66857 2.94413 8.33464 7.13537e-13 -6.68115e-07 -5.02083e-06 -3.53866
42 1 Cu 8.95226 3.68632 10.4265 2.01995e-06 -1.16621e-06 -3.29855e-06 -3.53803
43 1 Cu 3.84776 2.22151 -0.00245877 4.29237e-06 2.4782e-06 1.04371e-06 -3.53866
44 1 Cu 5.11909 2.95551 2.08986 3.6462e-06 2.10513e-06 1.48856e-06 -3.53999
45 1 Cu 6.39422 3.69171 4.17118 2.1236e-06 1.22606e-06 -1.7339e-06 -3.5398
46 1 Cu 7.66857 4.42745 6.25315 4.11635e-12 2.15616e-12 -4.46565e-06 -3.53999
47 1 Cu 8.95317 5.16911 8.33464 5.78607e-07 3.3406e-07 -5.02083e-06 -3.53866
48 1 Cu 10.2424 5.91344 10.4212 3.32586e-06 1.92019e-06 -2.71555e-06 -3.53854
49 1 Cu 5.11605 4.43088 0.015201 1.81844e-06 1.22594e-06 4.23701e-06 -3.53984
50 1 Cu 6.39422 5.1632 2.09018 2.1236e-06 -1.22605e-06 1.73391e-06 -3.5398
51 1 Cu 7.66857 5.89895 4.17118 5.97927e-12 -2.45211e-06 -1.7339e-06 -3.5398
52 1 Cu 8.9351 6.63581 6.25169 -2.90418e-06 -1.50066e-06 -3.47499e-06 -3.53984
53 1 Cu 10.2207 7.38882 8.33472 -1.60081e-06 2.03288e-06 -2.87492e-06 -3.54156
54 1 Cu 11.5093 8.13275 10.4389 9.60118e-07 3.51143e-06 1.30706e-06 -3.54156
55 1 Cu 6.38934 6.63629 0.015201 -1.52479e-07 -2.18778e-06 4.23701e-06 -3.53984
56 1 Cu 7.66857 7.37134 2.08986 4.1157e-12 -4.21026e-06 1.48855e-06 -3.53999
57 1 Cu 8.9351 8.10609 4.17241 -2.90418e-06 -3.77647e-06 -2.56505e-07 -3.53984
58 1 Cu 10.1603 8.85491 6.26136 -9.35065e-06 3.72534e-12 2.57445e-12 -3.54652
59 1 Cu 11.465 9.60735 8.36655 -7.15396e-06 3.70707e-06 3.07025e-06 -3.55038
60 1 Cu 12.7487 10.3493 10.4882 -4.67532e-06 2.6993e-06 7.63477e-06 -3.54652
61 1 Cu 7.66857 8.83935 -0.00245877 7.13804e-13 -4.95639e-06 1.04371e-06 -3.53866
62 1 Cu 8.95317 9.58101 2.09528 5.78607e-07 -4.62234e-06 1.98857e-06 -3.53866
63 1 Cu 10.2207 10.321 4.188 -1.60081e-06 -2.03287e-06 2.87492e-06 -3.54156
64 1 Cu 11.465 11.0905 6.26905 -7.15396e-06 4.13034e-06 2.47164e-06 -3.55038
65 1 Cu 12.7494 11.8321 8.36655 -6.7874e-06 4.34198e-06 3.07024e-06 -3.55038
66 1 Cu 14.0486 12.531 10.4389 -2.56093e-06 -2.5872e-06 1.30706e-06 -3.54156
67 1 Cu 8.95226 11.059 -4.49331e-11 2.01995e-06 -3.49864e-06 1.40718e-12 -3.53803
68 1 Cu 10.2424 11.7964 2.10151 3.32586e-06 -1.92018e-06 2.71555e-06 -3.53854
69 1 Cu 11.5093 12.5528 4.188 9.60118e-07 2.40278e-06 2.87492e-06 -3.54156
70 1 Cu 12.7487 13.3382 6.26136 -4.67532e-06 8.0979e-06 5.03181e-13 -3.54652
71 1 Cu 14.0486 14.0189 8.33472 -2.56093e-06 3.69906e-07 -2.87492e-06 -3.54156
72 1 Cu 15.3371 14.7378 10.4212 -7.96745e-13 -3.84037e-06 -2.71555e-06 -3.53854
73 1 Cu 5.12914 2.46804e-09 -3.05609e-11 4.13011e-06 1.20646e-12 8.34967e-13 -3.5398
74 1 Cu 6.39528 0.752727 2.08343 1.97092e-06 4.3153e-06 -5.05507e-07 -3.53984
75 1 Cu 15.3371 14.7797 4.16663 4.77552e-12 6.04225e-06 -2.13626e-06 -3.53847
76 1 Cu 8.9478 2.22643 6.25169 1.52482e-07 3.26543e-06 -3.47499e-06 -3.53984
77 1 Cu 10.2331 2.9468 8.3348 2.06505e-06 -1.19226e-06 -3.37221e-06 -3.5398
78 1 Cu 11.5163 3.68927 10.4275 4.29236e-06 -1.81008e-06 -1.98856e-06 -3.53866
79 1 Cu 6.39528 2.21519 0.015201 1.97092e-06 9.61836e-07 4.23701e-06 -3.53984
80 1 Cu 7.66857 2.95596 2.09018 7.56816e-12 2.45211e-06 1.73391e-06 -3.5398
81 1 Cu 8.94292 3.69171 4.17118 -2.12358e-06 1.22606e-06 -1.7339e-06 -3.5398
82 1 Cu 10.2143 4.42012 6.25169 -2.7517e-06 -1.76476e-06 -3.47499e-06 -3.53984
83 1 Cu 11.5093 5.15702 8.33472 9.60116e-07 -2.40278e-06 -2.87492e-06 -3.54156
84 1 Cu 12.7978 5.90095 10.4389 3.52105e-06 -9.24228e-07 1.30706e-06 -3.54156
85 1 Cu 7.66857 4.42745 0.0228264 4.77594e-12 1.51306e-13 6.40878e-06 -3.53847
86 1 Cu 8.94292 5.1632 2.09018 -2.12358e-06 -1.22605e-06 1.73391e-06 -3.5398
87 1 Cu 10.2061 5.89251 4.16663 -5.23274e-06 -3.02112e-06 -2.13626e-06 -3.53847
88 1 Cu 11.465 6.6193 6.25368 -7.15396e-06 -4.13034e-06 -2.47164e-06 -3.55038
89 1 Cu 12.748 7.36005 8.37541 -3.04394e-06 -1.75742e-06 2.48537e-06 -3.54937
90 1 Cu 14.0527 8.11332 10.4794 -3.66566e-07 -2.11638e-07 8.61213e-06 -3.55038
91 1 Cu 8.9478 6.63629 0.015201 1.52482e-07 -2.18778e-06 4.23701e-06 -3.53984
92 1 Cu 10.2143 7.36752 2.08343 -2.7517e-06 -3.86451e-06 -5.05506e-07 -3.53984
93 1 Cu 11.465 8.10246 4.15617 -7.15396e-06 -3.70706e-06 -3.07024e-06 -3.55038
94 1 Cu 12.5461 8.85491 6.26136 -1.71713e-05 6.62381e-12 4.7326e-12 -3.51739
95 1 Cu 13.9416 9.66061 8.54024 -8.58566e-06 4.95693e-06 1.40203e-05 -3.51739
96 1 Cu 15.3371 10.3381 10.4794 -1.89254e-12 4.23275e-07 8.61213e-06 -3.55038
97 1 Cu 10.2331 8.84039 -4.07996e-11 2.06505e-06 -3.57677e-06 1.60956e-14 -3.5398
98 1 Cu 11.5093 9.57706 2.08384 9.60116e-07 -3.51142e-06 -1.30706e-06 -3.54156
99 1 Cu 12.748 10.3498 4.14732 -3.04394e-06 1.75742e-06 -2.48537e-06 -3.54937
100 1 Cu 13.9416 11.272 6.26136 -8.58566e-06 1.48708e-05 1.48467e-13 -3.51739
101 1 Cu 15.3371 11.8446 8.37541 -5.2519e-12 3.51484e-06 2.48537e-06 -3.54937
102 1 Cu 16.6257 12.531 10.4389 2.56092e-06 -2.5872e-06 1.30706e-06 -3.54156
103 1 Cu 11.5163 11.0609 0.00245877 4.29236e-06 -2.4782e-06 -1.04371e-06 -3.53866
104 1 Cu 12.7978 11.8089 2.08384 3.52104e-06 9.24231e-07 -1.30706e-06 -3.54156
105 1 Cu 14.0527 12.5845 4.15617 -3.66566e-07 8.04904e-06 -3.07024e-06 -3.55038
106 1 Cu 15.3371 13.3261 6.25368 -1.89276e-12 8.26068e-06 -2.47164e-06 -3.55038
107 1 Cu 16.6257 14.0189 8.33472 2.56092e-06 3.69905e-07 -2.87492e-06 -3.54156
108 1 Cu 17.9003 14.7466 10.4275 3.71376e-06 -2.81226e-06 -1.98856e-06 -3.53866
109 1 Cu 7.66857 2.57886e-09 4.49037e-11 2.40763e-12 -2.46475e-12 -1.63212e-12 -3.54137
110 1 Cu 8.94187 0.752727 2.08343 -1.97091e-06 4.3153e-06 -5.05509e-07 -3.53984
111 1 Cu 17.8897 14.7736 4.17241 -1.81843e-06 4.40333e-06 -2.56508e-07 -3.53984
112 1 Cu 11.5029 2.21373 6.26136 -1.73027e-12 -1.46402e-12 -4.53971e-13 -3.54137
113 1 Cu 12.7846 2.93616 8.35032 1.81843e-06 -4.40333e-06 2.56506e-07 -3.53984
114 1 Cu 14.0638 3.67473 10.4393 1.97091e-06 -4.3153e-06 5.05506e-07 -3.53984
115 1 Cu 8.94187 2.21519 0.015201 -1.97091e-06 9.61833e-07 4.237e-06 -3.53984
116 1 Cu 10.2181 2.95551 2.08986 -3.64619e-06 2.10513e-06 1.48855e-06 -3.53999
117 1 Cu 11.4876 3.68498 4.17241 -4.72261e-06 -6.2686e-07 -2.56506e-07 -3.53984
118 1 Cu 12.7487 4.37163 6.26136 -4.67532e-06 -8.0979e-06 2.69182e-13 -3.54652
119 1 Cu 14.0527 5.12527 8.36655 -3.66569e-07 -8.04904e-06 3.07024e-06 -3.55038
120 1 Cu 15.3371 5.86606 10.4882 1.02138e-12 -5.3986e-06 7.63477e-06 -3.54652
121 1 Cu 10.2211 4.43088 0.015201 -1.81843e-06 1.22594e-06 4.23701e-06 -3.53984
122 1 Cu 11.4876 5.16211 2.08343 -4.72261e-06 -4.5079e-07 -5.05507e-07 -3.53984
123 1 Cu 12.7494 5.87772 4.15617 -6.78739e-06 -4.34198e-06 -3.07024e-06 -3.55038
124 1 Cu 13.9416 6.43779 6.26136 -8.58565e-06 -1.48708e-05 1.73028e-12 -3.51739
125 1 Cu 15.3371 7.24349 8.54024 -2.38625e-12 -9.91386e-06 1.40203e-05 -3.51739
126 1 Cu 16.6216 8.11332 10.4794 3.66567e-07 -2.11642e-07 8.61213e-06 -3.55038
127 1 Cu 11.5029 6.64118 2.59771e-11 -1.65052e-12 -7.93537e-13 -1.19799e-12 -3.54137
128 1 Cu 12.7487 7.36048 2.03449 -4.67532e-06 -2.6993e-06 -7.63477e-06 -3.54652
129 1 Cu 13.9416 8.0492 3.98248 -8.58565e-06 -4.95693e-06 -1.40203e-05 -3.51739
130 1 Cu 16.7327 9.66061 8.54024 8.58565e-06 4.95692e-06 1.40203e-05 -3.51739
131 1 Cu 17.9256 10.3493 10.4882 4.67532e-06 2.6993e-06 7.63477e-06 -3.54652
132 1 Cu 12.7846 8.85148 -0.015201 1.81843e-06 -1.22594e-06 -4.23701e-06 -3.53984
133 1 Cu 14.0527 9.59649 2.0433 -3.66569e-07 2.11637e-07 -8.61213e-06 -3.55038
134 1 Cu 15.3371 10.4663 3.98248 -2.38608e-12 9.91386e-06 -1.40203e-05 -3.51739
135 1 Cu 16.7327 11.272 6.26136 8.58565e-06 1.48708e-05 -4.90462e-12 -3.51739
136 1 Cu 17.9249 11.8321 8.36655 6.78738e-06 4.34197e-06 3.07024e-06 -3.55038
137 1 Cu 19.1867 12.5477 10.4393 4.72261e-06 4.50788e-07 5.05505e-07 -3.53984
138 1 Cu 14.0638 11.0672 -0.015201 1.97091e-06 -9.61837e-07 -4.23701e-06 -3.53984
139 1 Cu 15.3371 11.8438 2.03449 1.02055e-12 5.3986e-06 -7.63477e-06 -3.54652
140 1 Cu 16.6216 12.5845 4.15617 3.66567e-07 8.04904e-06 -3.07025e-06 -3.55038
141 1 Cu 17.9256 13.3382 6.26136 4.67532e-06 8.0979e-06 -2.49446e-12 -3.54652
142 1 Cu 19.1867 14.0248 8.35032 4.72261e-06 6.26858e-07 2.56505e-07 -3.53984
143 1 Cu 20.4562 14.7543 10.4329 3.64619e-06 -2.10513e-06 -1.48855e-06 -3.53999
144 1 Cu 10.208 2.62051e-09 7.72502e-11 -4.1301e-06 -3.48937e-12 -2.48559e-12 -3.5398
145 1 Cu 11.4894 0.738184 2.09528 -4.29236e-06 1.81008e-06 1.98856e-06 -3.53866
146 1 Cu 20.4411 14.763 4.18793 -2.06505e-06 1.19226e-06 3.37221e-06 -3.5398
147 1 Cu 14.0579 2.20102 6.27104 -1.52484e-07 -3.26543e-06 3.47499e-06 -3.53984
148 1 Cu 15.3371 2.93011 8.35609 -4.24328e-12 -6.04225e-06 2.13626e-06 -3.53847
149 1 Cu 16.6104 3.67473 10.4393 -1.97091e-06 -4.3153e-06 5.05505e-07 -3.53984
150 1 Cu 11.4894 2.22151 -0.00245877 -4.29236e-06 2.4782e-06 1.04371e-06 -3.53866
151 1 Cu 12.774 2.96317 2.09528 -3.71376e-06 2.81226e-06 1.98856e-06 -3.53866
152 1 Cu 14.0486 3.69093 4.188 -2.56092e-06 -3.69907e-07 2.87492e-06 -3.54156
153 1 Cu 15.3371 4.38369 6.26905 -4.75351e-13 -8.26068e-06 2.47164e-06 -3.55038
154 1 Cu 16.6216 5.12527 8.36655 3.66566e-07 -8.04904e-06 3.07024e-06 -3.55038
155 1 Cu 17.8765 5.90095 10.4389 -3.52104e-06 -9.24233e-07 1.30706e-06 -3.54156
156 1 Cu 12.7726 4.44197 6.76642e-11 -2.06505e-06 3.57677e-06 -1.25163e-12 -3.5398
157 1 Cu 14.0486 5.1788 2.08384 -2.56092e-06 2.5872e-06 -1.30706e-06 -3.54156
158 1 Cu 15.3371 5.8652 4.14732 1.72539e-12 -3.51484e-06 -2.48537e-06 -3.54937
159 1 Cu 16.7327 6.43779 6.26136 8.58565e-06 -1.48708e-05 -2.52424e-12 -3.51739
160 1 Cu 17.9263 7.36005 8.37541 3.04394e-06 -1.75742e-06 2.48537e-06 -3.54937
161 1 Cu 19.165 8.13275 10.4389 -9.60117e-07 3.51142e-06 1.30706e-06 -3.54156
162 1 Cu 14.0579 6.64607 -0.015201 -1.52484e-07 2.18778e-06 -4.23701e-06 -3.53984
163 1 Cu 15.3371 7.37174 2.0433 -4.74567e-13 -4.23278e-07 -8.61213e-06 -3.55038
164 1 Cu 16.7327 8.0492 3.98248 8.58565e-06 -4.95693e-06 -1.40203e-05 -3.51739
165 1 Cu 18.1282 8.85491 6.26136 1.71713e-05 -6.7313e-12 -4.71082e-12 -3.51739
166 1 Cu 19.2093 9.60735 8.36655 7.15395e-06 3.70706e-06 3.07024e-06 -3.55038