ITEM: TIMESTEP
0
ITEM: NUMBER OF ATOMS
215
ITEM: BOX BOUNDS xy xz yz pp pp pp
0.0000000000000000e+00 3.0674292160000000e+01 7.6685730400000001e+00
0.0000000000000000e+00 1.7709810839999999e+01 7.6685730400000001e+00
0.0000000000000000e+00 1.2522727339999999e+01 4.4274527099999998e+00
ITEM: ATOMS id type element x y z fx fy fz c_energy
1 1 Cu 0 0 0 9.3168e-10 3.45735e-09 -2.10313e-10 -3.53996
2 1 Cu 1.2781 0.737909 2.08712 -3.26424e-09 -5.71596e-09 3.6396e-09 -3.53996
3 1 Cu 25.5619 14.7582 4.17424 0.000377504 0.000217954 0.00061645 -3.53996
4 1 Cu 19.1714 2.21373 6.26136 2.30433e-09 -4.68623e-09 -1.97601e-09 -3.53996
5 1 Cu 5.11238 2.95164 8.34848 -0.000377502 -0.000217945 -0.000616448 -3.53996
6 1 Cu 21.7276 3.68954 10.4356 5.1519e-09 -4.74626e-09 -5.17376e-09 -3.53996
7 1 Cu 1.2781 2.21373 0 -3.26424e-09 -5.13844e-09 -1.59095e-09 -3.53996
8 1 Cu 17.8933 2.95164 2.08712 -0.00102152 0.00173857 0.00122936 -3.53996
9 1 Cu 19.1714 3.68954 4.17424 -0.00166996 0.00147886 0.000956203 -3.53996
10 1 Cu 5.11238 4.42745 6.26136 -0.00204264 0.00126371 0.000347634 -3.53996
11 1 Cu 21.7276 5.16536 8.34848 -0.0020164 0.00116417 -0.000395275 -3.53996
12 1 Cu 23.0057 5.90327 10.4356 3.89664e-09 3.26028e-09 -4.1328e-09 -3.53996
13 1 Cu 17.8933 4.42745 0 0.000377504 0.000653853 1.81497e-10 -3.53996
14 1 Cu 19.1714 5.16536 2.08712 -0.00166996 0.00139447 0.00107556 -3.53996
15 1 Cu 5.11238 5.90327 4.17424 -0.000347269 0.000200498 0.000141766 -3.53997
16 1 Cu 21.7276 6.64118 6.26136 -0.00211571 0.00113712 0.000347633 -3.53996
17 1 Cu 7.66857 7.37909 8.34848 3.30501e-09 0.000435902 -0.000616449 -3.53996
18 1 Cu 24.2838 8.117 10.4356 0.00201641 -1.53914e-05 -0.00122936 -3.53996
19 1 Cu 19.1714 6.64118 0 2.31069e-09 -5.93517e-09 -2.27394e-10 -3.53996
20 1 Cu 5.11238 7.37909 2.08712 -0.00204264 0.000748991 0.00107556 -3.53996
21 1 Cu 21.7276 8.117 4.17424 -0.00211571 0.000706788 0.000956204 -3.53996
22 1 Cu 7.66857 8.85491 6.26136 3.27888e-09 3.73161e-09 -1.6178e-11 -3.53996
23 1 Cu 8.94667 9.59281 8.34848 0.00211572 -0.000706798 -0.000956206 -3.53996
24 1 Cu 10.2248 10.3307 10.4356 0.00204263 -0.000748982 -0.00107556 -3.53996
25 1 Cu 5.11238 8.85491 0 -0.000377502 -0.000653843 -2.29318e-10 -3.53996
26 1 Cu 21.7276 9.59281 2.08712 -0.0020164 1.53807e-05 0.00122936 -3.53996
27 1 Cu 23.0057 10.3307 4.17424 3.30501e-09 -0.000435895 0.000616449 -3.53996
28 1 Cu 8.94667 11.0686 6.26136 0.00211572 -0.00113713 -0.000347636 -3.53996
29 1 Cu 10.2248 11.8065 8.34848 0.000347261 -0.000200489 -0.000141765 -3.53997
30 1 Cu 26.84 12.5444 10.4356 0.00166996 -0.00139448 -0.00107556 -3.53996
31 1 Cu 21.7276 11.0686 0 5.15191e-09 -4.80175e-09 -6.81469e-10 -3.53996
32 1 Cu 7.66857 11.8065 2.08712 3.89664e-09 3.85489e-09 3.85393e-09 -3.53996
33 1 Cu 24.2838 12.5444 4.17424 0.00201641 -0.00116418 0.000395273 -3.53996
34 1 Cu 10.2248 13.2824 6.26136 0.00204263 -0.0012637 -0.000347633 -3.53996
35 1 Cu 26.84 14.0203 8.34848 0.00166996 -0.00147887 -0.000956206 -3.53996
36 1 Cu 12.781 14.7582 10.4356 0.00102153 -0.00173856 -0.00122936 -3.53996
37 1 Cu 2.55619 0 0 6.38432e-09 4.53357e-09 5.50693e-10 -3.53996
38 1 Cu 3.83429 0.737909 2.08712 0.000994881 -0.00175396 0.00122936 -3.53996
39 1 Cu 12.781 14.7582 4.17424 0.000445752 -0.00218566 0.000956206 -3.53996
40 1 Cu 6.39048 2.21373 6.26136 7.30884e-05 -0.00240083 0.000347633 -3.53996
41 1 Cu 7.66857 2.95164 8.34848 2.58655e-09 -0.00232834 -0.000395274 -3.53996
42 1 Cu 8.94667 3.68954 10.4356 -2.15285e-09 -4.91911e-09 -5.99918e-09 -3.53996
43 1 Cu 3.83429 2.21373 0 0.000994881 0.000574389 -0.00206343 -3.53996
44 1 Cu 5.11238 2.95164 2.08712 -5.11486e-09 4.73431e-09 5.1054e-09 -3.53996
45 1 Cu 6.39048 3.68954 4.17424 -0.000718864 -0.000415044 0.000586949 -3.53996
46 1 Cu 7.66857 4.42745 6.26136 1.703e-09 4.79706e-09 6.96734e-10 -3.53996
47 1 Cu 8.94667 5.16536 8.34848 0.00201641 0.00116417 -0.000395275 -3.53996
48 1 Cu 10.2248 5.90327 10.4356 0.0019735 0.00113941 -0.00161136 -3.53996
49 1 Cu 5.11238 4.42745 0 0.000445752 0.000172974 -0.0023794 -3.53996
50 1 Cu 6.39048 5.16536 2.08712 -0.000718864 0.000415034 -0.00058695 -3.53996
51 1 Cu 7.66857 5.90327 4.17424 1.70892e-09 0.000830083 0.00058695 -3.53996
52 1 Cu 8.94667 6.64118 6.26136 0.00211571 0.00113712 0.000347633 -3.53996
53 1 Cu 10.2248 7.37909 8.34848 -0.00389477 -0.00106829 0.0015108 -3.53998
54 1 Cu 11.5029 8.117 10.4356 -0.00287255 -0.000478124 0.00318006 -3.53998
55 1 Cu 6.39048 6.64118 0 7.30884e-05 -0.000472527 -0.0023794 -3.53996
56 1 Cu 7.66857 7.37909 2.08712 1.703e-09 4.75954e-09 5.16458e-09 -3.53996
57 1 Cu 8.94667 8.117 4.17424 0.00211571 0.000706788 0.000956204 -3.53996
58 1 Cu 10.2248 8.85491 6.26136 0.0103377 4.41499e-09 4.55712e-10 -3.54141
59 1 Cu 11.5029 9.59281 8.34848 0.0185474 -0.00360538 -0.0100832 -3.54986
60 1 Cu 12.781 10.3307 10.4356 0.00516887 -0.00298425 -0.00844074 -3.54141
61 1 Cu 7.66857 8.85491 0 2.58655e-09 -0.00114878 -0.00206343 -3.53996
62 1 Cu 8.94667 9.59281 2.08712 0.00201641 1.53805e-05 0.00122936 -3.53996
63 1 Cu 10.2248 10.3307 4.17424 -0.00389477 0.0010683 -0.0015108 -3.53998
64 1 Cu 11.5029 11.0686 6.26136 0.0185474 -0.0107084 -3.80958e-05 -3.54986
65 1 Cu 12.781 11.8065 8.34848 0.0123961 -0.0142599 -0.0100832 -3.54986
66 1 Cu 14.0591 12.5444 10.4356 -0.00102222 0.00272676 0.00318006 -3.53998
67 1 Cu 8.94667 11.0686 0 -2.15285e-09 -5.63757e-09 -5.69288e-10 -3.53996
68 1 Cu 10.2248 11.8065 2.08712 0.0019735 -0.0011394 0.00161136 -3.53996
69 1 Cu 11.5029 12.5444 4.17424 -0.00287255 0.00283882 -0.0015108 -3.53998
70 1 Cu 12.781 13.2824 6.26136 0.00516887 -0.00895275 1.3813e-09 -3.54141
71 1 Cu 14.0591 14.0203 8.34848 -0.00102222 0.00390711 0.0015108 -3.53998
72 1 Cu 15.3371 14.7582 10.4356 3.60466e-09 -0.0022788 -0.00161136 -3.53996
73 1 Cu 5.11238 0 0 0.000754994 3.87461e-09 7.83704e-11 -3.53996
74 1 Cu 6.39048 0.737909 2.08712 0.00037268 -0.00214347 0.00107556 -3.53996
75 1 Cu 15.3371 14.7582 4.17424 2.32759e-09 -0.000400981 0.000141766 -3.53997
76 1 Cu 8.94667 2.21373 6.26136 -7.30845e-05 -0.00240083 0.000347634 -3.53996
77 1 Cu 10.2248 2.95164 8.34848 0.000377494 -0.000217944 -0.000616448 -3.53996
78 1 Cu 11.5029 3.68954 10.4356 0.000994884 0.00175395 -0.00122936 -3.53996
79 1 Cu 6.39048 2.21373 0 0.00037268 0.000299547 -0.0023794 -3.53996
80 1 Cu 7.66857 2.95164 2.08712 1.45656e-09 -0.000830074 -0.000586949 -3.53996
81 1 Cu 8.94667 3.68954 4.17424 0.000718867 -0.000415044 0.000586949 -3.53996
82 1 Cu 10.2248 4.42745 6.26136 0.00204263 0.00126371 0.000347635 -3.53996
83 1 Cu 11.5029 5.16536 8.34848 -0.00287255 -0.00283882 0.0015108 -3.53998
84 1 Cu 12.781 5.90327 10.4356 -0.00185034 -0.00224864 0.00318006 -3.53998
85 1 Cu 7.66857 4.42745 0 2.3276e-09 4.91862e-09 -0.000425309 -3.53997
86 1 Cu 8.94667 5.16536 2.08712 0.000718867 0.000415035 -0.00058695 -3.53996
87 1 Cu 10.2248 5.90327 4.17424 0.000347259 0.000200498 0.000141767 -3.53997
88 1 Cu 11.5029 6.64118 6.26136 0.0185474 0.0107084 3.80944e-05 -3.54986
89 1 Cu 12.781 7.37909 8.34848 -0.0152378 -0.00879753 0.0124416 -3.55755
90 1 Cu 14.0591 8.117 10.4356 0.00615137 0.00355149 -0.0202046 -3.54986
91 1 Cu 8.94667 6.64118 0 -7.30845e-05 -0.000472526 -0.0023794 -3.53996
92 1 Cu 10.2248 7.37909 2.08712 0.00204263 0.000748991 0.00107556 -3.53996
93 1 Cu 11.5029 8.117 4.17424 0.0185474 0.00360537 0.0100832 -3.54986
94 1 Cu 12.781 8.85491 6.26136 -0.136465 4.20435e-09 5.95349e-10 -3.51096
95 1 Cu 14.0591 9.59281 8.34848 -0.0682326 0.0393941 0.111423 -3.51096
96 1 Cu 15.3371 10.3307 10.4356 4.56966e-09 -0.00710299 -0.0202046 -3.54986
97 1 Cu 10.2248 8.85491 0 0.000377494 -0.000653843 7.89038e-10 -3.53996
98 1 Cu 11.5029 9.59281 2.08712 -0.00287255 0.000478114 -0.00318006 -3.53998
99 1 Cu 12.781 10.3307 4.17424 -0.0152378 0.00879754 -0.0124416 -3.55755
100 1 Cu 14.0591 11.0686 6.26136 -0.0682326 0.118182 -5.99093e-10 -3.51096
101 1 Cu 15.3371 11.8065 8.34848 5.39743e-09 0.0175951 0.0124416 -3.55755
102 1 Cu 16.6152 12.5444 10.4356 0.00102221 0.00272676 0.00318006 -3.53998
103 1 Cu 11.5029 11.0686 0 0.000994884 -0.000574398 0.00206343 -3.53996
104 1 Cu 12.781 11.8065 2.08712 -0.00185034 0.00224865 -0.00318006 -3.53998
105 1 Cu 14.0591 12.5444 4.17424 0.00615137 -0.0178652 0.0100832 -3.54986
106 1 Cu 15.3371 13.2824 6.26136 4.56966e-09 -0.0214167 3.80956e-05 -3.54986
107 1 Cu 16.6152 14.0203 8.34848 0.00102221 0.00390711 0.0015108 -3.53998
108 1 Cu 17.8933 14.7582 10.4356 -0.00102153 -0.00173856 -0.00122936 -3.53996
109 1 Cu 7.66857 0 0 3.19528e-09 5.67887e-09 1.34781e-09 -3.53996
110 1 Cu 8.94667 0.737909 2.08712 -0.000372677 -0.00214347 0.00107556 -3.53996
111 1 Cu 17.8933 14.7582 4.17424 -0.000445763 -0.00218565 0.000956206 -3.53996
112 1 Cu 11.5029 2.21373 6.26136 5.20863e-09 -4.81072e-09 -7.95791e-10 -3.53996
113 1 Cu 12.781 2.95164 8.34848 0.000445756 0.00218566 -0.000956204 -3.53996
114 1 Cu 14.0591 3.68954 10.4356 0.00037267 0.00214346 -0.00107556 -3.53996
115 1 Cu 8.94667 2.21373 0 -0.000372677 0.000299548 -0.0023794 -3.53996
116 1 Cu 10.2248 2.95164 2.08712 -5.57128e-09 4.69681e-09 5.07888e-09 -3.53996
117 1 Cu 11.5029 3.68954 4.17424 0.00166996 0.00147886 0.000956204 -3.53996
118 1 Cu 12.781 4.42745 6.26136 0.00516888 0.00895276 5.9549e-10 -3.54141
119 1 Cu 14.0591 5.16536 8.34848 0.00615137 0.0178652 -0.0100832 -3.54986
120 1 Cu 15.3371 5.90327 10.4356 4.55446e-09 0.00596851 -0.00844074 -3.54141
121 1 Cu 10.2248 4.42745 0 -0.000445763 0.000172975 -0.00237939 -3.53996
122 1 Cu 11.5029 5.16536 2.08712 0.00166996 0.00139447 0.00107556 -3.53996
123 1 Cu 12.781 5.90327 4.17424 0.0123961 0.0142599 0.0100832 -3.54986
124 1 Cu 14.0591 6.64118 6.26136 -0.0682326 -0.118182 -5.63916e-10 -3.51096
125 1 Cu 15.3371 7.37909 8.34848 5.01332e-09 -0.0787882 0.111423 -3.51096
126 1 Cu 16.6152 8.117 10.4356 -0.00615137 0.00355149 -0.0202046 -3.54986
127 1 Cu 11.5029 6.64118 0 5.20226e-09 -4.86394e-09 -7.38168e-10 -3.53996
128 1 Cu 12.781 7.37909 2.08712 0.00516888 0.00298426 0.00844074 -3.54141
129 1 Cu 14.0591 8.117 4.17424 -0.0682326 -0.0393941 -0.111423 -3.51096
130 1 Cu 16.6152 9.59281 8.34848 0.0682326 0.0393941 0.111423 -3.51096
131 1 Cu 17.8933 10.3307 10.4356 -0.00516888 -0.00298425 -0.00844074 -3.54141
132 1 Cu 12.781 8.85491 0 0.000445756 -0.000172965 0.0023794 -3.53996
133 1 Cu 14.0591 9.59281 2.08712 0.00615137 -0.0035515 0.0202046 -3.54986
134 1 Cu 15.3371 10.3307 4.17424 5.01333e-09 0.0787883 -0.111423 -3.51096
135 1 Cu 16.6152 11.0686 6.26136 0.0682326 0.118182 -5.72685e-10 -3.51096
136 1 Cu 17.8933 11.8065 8.34848 -0.0123961 -0.0142599 -0.0100832 -3.54986
137 1 Cu 19.1714 12.5444 10.4356 -0.00166995 -0.00139448 -0.00107556 -3.53996
138 1 Cu 14.0591 11.0686 0 0.00037267 -0.000299557 0.00237939 -3.53996
139 1 Cu 15.3371 11.8065 2.08712 4.55445e-09 -0.0059685 0.00844074 -3.54141
140 1 Cu 16.6152 12.5444 4.17424 -0.00615137 -0.0178652 0.0100832 -3.54986
141 1 Cu 17.8933 13.2824 6.26136 -0.00516888 -0.00895275 7.59522e-10 -3.54141
142 1 Cu 19.1714 14.0203 8.34848 -0.00166995 -0.00147887 -0.000956205 -3.53996
143 1 Cu 20.4495 14.7582 10.4356 2.57367e-09 4.59994e-09 -3.82151e-09 -3.53996
144 1 Cu 10.2248 0 0 -0.000755004 5.0325e-09 8.97125e-10 -3.53996
145 1 Cu 11.5029 0.737909 2.08712 -0.000994875 -0.00175396 0.00122936 -3.53996
146 1 Cu 20.4495 14.7582 4.17424 -0.0003775 0.000217954 0.000616449 -3.53996
147 1 Cu 14.0591 2.21373 6.26136 7.30778e-05 0.00240082 -0.000347635 -3.53996
148 1 Cu 15.3371 2.95164 8.34848 5.82621e-09 0.000400992 -0.000141765 -3.53997
149 1 Cu 16.6152 3.68954 10.4356 -0.000372674 0.00214346 -0.00107556 -3.53996
150 1 Cu 11.5029 2.21373 0 -0.000994875 0.00057439 -0.00206343 -3.53996
151 1 Cu 12.781 2.95164 2.08712 0.00102153 0.00173857 0.00122936 -3.53996
152 1 Cu 14.0591 3.68954 4.17424 -0.00102222 -0.00390712 -0.0015108 -3.53998
153 1 Cu 15.3371 4.42745 6.26136 5.13529e-09 0.0214167 -3.80942e-05 -3.54986
154 1 Cu 16.6152 5.16536 8.34848 -0.00615138 0.0178652 -0.0100832 -3.54986
155 1 Cu 17.8933 5.90327 10.4356 0.00185033 -0.00224864 0.00318006 -3.53998
156 1 Cu 12.781 4.42745 0 -0.0003775 0.000653852 1.24336e-09 -3.53996
157 1 Cu 14.0591 5.16536 2.08712 -0.00102222 -0.00272677 -0.00318006 -3.53998
158 1 Cu 15.3371 5.90327 4.17424 4.9991e-09 -0.0175951 -0.0124416 -3.55755
159 1 Cu 16.6152 6.64118 6.26136 0.0682326 -0.118182 -5.93755e-10 -3.51096
160 1 Cu 17.8933 7.37909 8.34848 0.0152378 -0.00879753 0.0124416 -3.55755
161 1 Cu 19.1714 8.117 10.4356 0.00287256 -0.000478123 0.00318006 -3.53998
162 1 Cu 14.0591 6.64118 0 7.30778e-05 0.000472517 0.00237939 -3.53996
163 1 Cu 15.3371 7.37909 2.08712 5.13529e-09 0.007103 0.0202046 -3.54986
164 1 Cu 16.6152 8.117 4.17424 0.0682326 -0.0393941 -0.111423 -3.51096
165 1 Cu 17.8933 8.85491 6.26136 0.136465 4.21711e-09 6.04373e-10 -3.51096
166 1 Cu 19.1714 9.59281 8.34848 -0.0185474 -0.00360538 -0.0100832 -3.54986
167 1 Cu 20.4495 10.3307 10.4356 -0.00204263 -0.000748982 -0.00107556 -3.53996
168 1 Cu 15.3371 8.85491 0 5.82622e-09 4.83469e-09 0.000425312 -3.53997
169 1 Cu 16.6152 9.59281 2.08712 -0.00615138 -0.0035515 0.0202046 -3.54986
170 1 Cu 17.8933 10.3307 4.17424 0.0152378 0.00879754 -0.0124416 -3.55755
171 1 Cu 19.1714 11.0686 6.26136 -0.0185474 -0.0107084 -3.80956e-05 -3.54986
172 1 Cu 20.4495 11.8065 8.34848 -0.000347264 -0.000200489 -0.000141765 -3.53997
173 1 Cu 21.7276 12.5444 10.4356 -0.000718872 -0.000415044 0.000586948 -3.53996
174 1 Cu 16.6152 11.0686 0 -0.000372674 -0.000299556 0.0023794 -3.53996
175 1 Cu 17.8933 11.8065 2.08712 0.00185033 0.00224865 -0.00318006 -3.53998
176 1 Cu 19.1714 12.5444 4.17424 0.00287256 0.00283882 -0.0015108 -3.53998
177 1 Cu 20.4495 13.2824 6.26136 -0.00204263 -0.0012637 -0.000347634 -3.53996
178 1 Cu 21.7276 14.0203 8.34848 -0.000718872 0.000415034 -0.00058695 -3.53996
179 1 Cu 23.0057 14.7582 10.4356 -6.49792e-09 0.000830083 0.00058695 -3.53996
180 1 Cu 12.781 0 0 -2.17222e-09 5.7882e-09 1.43785e-09 -3.53996
181 1 Cu 14.0591 0.737909 2.08712 -5.46483e-09 -4.78447e-09 3.71205e-09 -3.53996
182 1 Cu 23.0057 14.7582 4.17424 4.09258e-09 0.00232835 0.000395275 -3.53996
183 1 Cu 16.6152 2.21373 6.26136 -7.30826e-05 0.00240082 -0.000347634 -3.53996
184 1 Cu 17.8933 2.95164 8.34848 -0.000445763 0.00218566 -0.000956204 -3.53996
185 1 Cu 19.1714 3.68954 10.4356 -0.000994876 0.00175395 -0.00122936 -3.53996
186 1 Cu 14.0591 2.21373 0 -5.46483e-09 -4.75965e-09 -7.36883e-10 -3.53996
187 1 Cu 15.3371 2.95164 2.08712 4.13433e-09 0.00227881 0.00161136 -3.53996
188 1 Cu 16.6152 3.68954 4.17424 0.00102221 -0.00390712 -0.0015108 -3.53998
189 1 Cu 17.8933 4.42745 6.26136 -0.00516888 0.00895276 7.16438e-10 -3.54141
190 1 Cu 19.1714 5.16536 8.34848 0.00287256 -0.00283882 0.0015108 -3.53998
191 1 Cu 20.4495 5.90327 10.4356 -0.0019735 0.00113941 -0.00161136 -3.53996
192 1 Cu 15.3371 4.42745 0 4.09259e-09 0.00114879 0.00206343 -3.53996
193 1 Cu 16.6152 5.16536 2.08712 0.00102221 -0.00272677 -0.00318006 -3.53998
194 1 Cu 17.8933 5.90327 4.17424 -0.0123961 0.0142599 0.0100832 -3.54986
195 1 Cu 19.1714 6.64118 6.26136 -0.0185474 0.0107084 3.80946e-05 -3.54986
196 1 Cu 20.4495 7.37909 8.34848 0.00389476 -0.00106829 0.0015108 -3.53998
197 1 Cu 21.7276 8.117 10.4356 -0.00201641 -1.53894e-05 -0.00122936 -3.53996
198 1 Cu 16.6152 6.64118 0 -7.30826e-05 0.000472518 0.0023794 -3.53996
199 1 Cu 17.8933 7.37909 2.08712 -0.00516888 0.00298426 0.00844074 -3.54141
200 1 Cu 19.1714 8.117 4.17424 -0.0185474 0.00360537 0.0100832 -3.54986
201 1 Cu 20.4495 8.85491 6.26136 -0.0103378 5.95686e-09 1.54598e-09 -3.54141
202 1 Cu 21.7276 9.59281 8.34848 -0.00211572 -0.000706796 -0.000956205 -3.53996
203 1 Cu 23.0057 10.3307 10.4356 -5.23374e-09 4.39544e-09 -3.20139e-09 -3.53996
204 1 Cu 17.8933 8.85491 0 -0.000445763 -0.000172965 0.0023794 -3.53996
205 1 Cu 19.1714 9.59281 2.08712 0.00287256 0.000478114 -0.00318006 -3.53998
206 1 Cu 20.4495 10.3307 4.17424 0.00389476 0.0010683 -0.0015108 -3.53998
207 1 Cu 21.7276 11.0686 6.26136 -0.00211572 -0.00113712 -0.000347634 -3.53996
208 1 Cu 23.0057 11.8065 8.34848 -5.15639e-09 -0.000830074 -0.000586949 -3.53996
209 1 Cu 24.2838 12.5444 10.4356 0.000718872 -0.000415044 0.00058695 -3.53996
210 1 Cu 19.1714 11.0686 0 -0.000994876 -0.000574399 0.00206343 -3.53996
211 1 Cu 20.4495 11.8065 2.08712 -0.0019735 -0.0011394 0.00161136 -3.53996
212 1 Cu 21.7276 12.5444 4.17424 -0.00201641 -0.00116418 0.000395275 -3.53996
213 1 Cu 23.0057 13.2824 6.26136 -5.23374e-09 5.11498e-09 1.97845e-10 -3.53996
214 1 Cu 24.2838 14.0203 8.34848 0.000718872 0.000415035 -0.00058695 -3.53996
215 1 Cu 25.5619 14.7582 10.4356 -2.67815e-09 4.8179e-09 -3.66739e-09 -3.53996
ITEM: TIMESTEP
23
ITEM: NUMBER OF ATOMS
215
ITEM: BOX BOUNDS xy xz yz pp pp pp
0.0000000000000000e+00 3.0674292160000000e+01 7.6685730400000001e+00
0.0000000000000000e+00 1.7709810839999999e+01 7.6685730400000001e+00
0.0000000000000000e+00 1.2522727339999999e+01 4.4274527099999998e+00
ITEM: ATOMS id type element x y z fx fy fz c_energy
1 1 Cu 2.70433e-09 2.44986e-09 -4.1465e-11 6.91661e-12 1.24133e-11 8.67537e-12 -3.53784
2 1 Cu 1.28353 0.741048 2.096 2.04675e-06 1.1817e-06 3.34232e-06 -3.53634
3 1 Cu 25.5701 14.7629 4.18769 1.0023e-07 5.77853e-08 1.63604e-07 -3.53976
4 1 Cu 19.1714 2.21373 6.26136 -1.069e-10 1.83919e-10 -2.93634e-12 -3.54288
5 1 Cu 5.10415 2.94688 8.33504 -1.00145e-07 -5.79024e-08 -1.63591e-07 -3.53976
6 1 Cu 21.7222 3.6864 10.4267 -2.04675e-06 -1.18169e-06 -3.34233e-06 -3.53634
7 1 Cu 1.28353 2.22314 -5.91246e-11 2.04675e-06 3.54508e-06 1.28516e-11 -3.53634
8 1 Cu 17.9001 2.96288 2.09507 3.49399e-06 -3.22209e-08 -2.27806e-08 -3.53753
9 1 Cu 19.1862 3.68518 4.17255 2.66654e-06 1.79906e-06 1.35929e-06 -3.53984
10 1 Cu 5.12241 4.42035 6.25191 -2.95921e-07 8.86921e-08 -3.47839e-06 -3.53984
11 1 Cu 21.7213 5.16902 8.33497 1.77491e-06 -1.02473e-06 -2.83004e-06 -3.53753
12 1 Cu 23.0057 5.90955 10.4267 2.95752e-12 2.36338e-06 -3.34232e-06 -3.53634
13 1 Cu 17.9016 4.44171 9.1742e-12 1.00237e-07 1.73507e-07 -6.61364e-11 -3.53976
14 1 Cu 19.1862 5.16231 2.08357 2.66655e-06 1.88125e-06 1.24307e-06 -3.53984
15 1 Cu 5.13044 5.89284 4.16687 4.70048e-06 -2.71382e-06 -1.91896e-06 -3.53723
16 1 Cu 21.7388 6.63604 6.25191 -2.24776e-07 2.11911e-07 -3.47835e-06 -3.53984
17 1 Cu 7.66857 7.3886 8.33504 1.39347e-11 1.1568e-07 -1.63594e-07 -3.53976
18 1 Cu 24.2901 8.12852 10.4277 -1.77487e-06 3.00981e-06 2.27803e-08 -3.53753
19 1 Cu 19.1714 6.64118 -1.14159e-10 -1.25922e-10 6.94392e-11 2.05625e-10 -3.54288
20 1 Cu 5.12241 7.36781 2.08357 -2.95929e-07 -3.2499e-06 1.24308e-06 -3.53984
21 1 Cu 21.7388 8.10637 4.17255 -2.24777e-07 -3.20879e-06 1.35925e-06 -3.53984
22 1 Cu 7.66857 8.85491 6.26136 -4.65202e-11 -9.58276e-13 -1.5308e-12 -3.54288
23 1 Cu 8.9355 9.60344 8.35018 2.24753e-07 3.2088e-06 -1.35919e-06 -3.53984
24 1 Cu 10.2147 10.342 10.4392 2.95828e-07 3.2498e-06 -1.2431e-06 -3.53984
25 1 Cu 5.10415 8.84064 1.92228e-11 -1.00138e-07 -1.73541e-07 -7.15723e-11 -3.53976
26 1 Cu 21.7213 9.5813 2.09507 1.77491e-06 -3.00976e-06 -2.2775e-08 -3.53753
27 1 Cu 23.0057 10.3212 4.18769 1.39301e-11 -1.1568e-07 1.63594e-07 -3.53976
28 1 Cu 8.9355 11.0738 6.27082 2.24755e-07 -2.1186e-07 3.47835e-06 -3.53984
29 1 Cu 10.2067 11.817 8.35586 -4.70043e-06 2.71379e-06 1.91893e-06 -3.53723
30 1 Cu 26.8252 12.5475 10.4392 -2.6665e-06 -1.8811e-06 -1.24311e-06 -3.53984
31 1 Cu 21.7222 11.0592 1.39469e-12 -2.04675e-06 -3.54507e-06 7.44194e-12 -3.53634
32 1 Cu 7.66857 11.8003 2.096 2.9584e-12 -2.36338e-06 3.34233e-06 -3.53634
33 1 Cu 24.2901 12.5408 4.18775 -1.77488e-06 1.02475e-06 2.83008e-06 -3.53753
34 1 Cu 10.2147 13.2895 6.27082 2.95836e-07 -8.8735e-08 3.47831e-06 -3.53984
35 1 Cu 26.8252 14.0246 8.35018 -2.6665e-06 -1.79905e-06 -1.35915e-06 -3.53984
36 1 Cu 12.7741 14.7469 10.4277 -3.49402e-06 3.21887e-08 2.27645e-08 -3.53753
37 1 Cu 2.56707 2.4152e-09 -6.49546e-11 4.09351e-06 5.16113e-12 1.82944e-12 -3.53634
38 1 Cu 3.84743 0.738182 2.09507 1.71913e-06 3.042e-06 -2.27494e-08 -3.53753
39 1 Cu 12.7846 14.7732 4.17255 2.89127e-06 1.40973e-06 1.35916e-06 -3.53984
40 1 Cu 6.38934 2.22597 6.25191 -7.10513e-08 -3.00575e-07 -3.47831e-06 -3.53984
41 1 Cu 7.66857 2.94432 8.33497 3.51822e-12 2.04947e-06 -2.83008e-06 -3.53753
42 1 Cu 8.95211 3.6864 10.4267 2.04676e-06 -1.18168e-06 -3.34233e-06 -3.53634
43 1 Cu 3.84743 2.22131 -0.00239347 1.71912e-06 9.92559e-07 2.87561e-06 -3.53753
44 1 Cu 5.11896 2.95543 2.08981 1.34765e-06 7.78035e-07 5.50157e-07 -3.54008
45 1 Cu 6.39414 3.69166 4.17125 1.55164e-06 8.95876e-07 -1.26691e-06 -3.53976
46 1 Cu 7.66857 4.42745 6.25331 8.89155e-12 -1.93516e-11 -1.65046e-06 -3.54008
47 1 Cu 8.953 5.16902 8.33497 -1.77491e-06 -1.02472e-06 -2.83004e-06 -3.53753
48 1 Cu 10.2419 5.91318 10.4216 1.04006e-06 6.00466e-07 -8.49204e-07 -3.53729
49 1 Cu 5.116 4.43085 0.0146927 2.89127e-06 1.75133e-06 8.76058e-07 -3.53984
50 1 Cu 6.39414 5.16325 2.09011 1.55164e-06 -8.95834e-07 1.26695e-06 -3.53976
51 1 Cu 7.66857 5.89904 4.17125 1.02121e-11 -1.79169e-06 -1.26692e-06 -3.53976
52 1 Cu 8.9355 6.63604 6.25191 2.24784e-07 2.11897e-07 -3.47834e-06 -3.53984
53 1 Cu 10.2209 7.38864 8.33498 1.10594e-06 2.35166e-06 -3.32579e-06 -3.54318
54 1 Cu 11.5092 8.13245 10.4388 2.58957e-06 3.2083e-06 -9.02934e-07 -3.54318
55 1 Cu 6.38934 6.63635 0.0146927 -7.1044e-08 -3.37957e-06 8.76061e-07 -3.53984
56 1 Cu 7.66857 7.37149 2.08981 8.89043e-12 -1.55608e-06 5.50134e-07 -3.54008
57 1 Cu 8.9355 8.10637 4.17255 2.24785e-07 -3.20878e-06 1.35923e-06 -3.53984
58 1 Cu 10.162 8.85491 6.26136 -1.14082e-05 -4.85072e-12 -3.58751e-12 -3.55303
59 1 Cu 11.4658 9.60717 8.36609 -6.5211e-06 1.0441e-07 3.95646e-06 -3.56077
60 1 Cu 12.7496 10.3488 10.4869 -5.704e-06 3.29321e-06 9.3146e-06 -3.55303
61 1 Cu 7.66857 8.83973 -0.00239347 3.51928e-12 -1.98508e-06 2.87562e-06 -3.53753
62 1 Cu 8.953 9.5813 2.09507 -1.77491e-06 -3.00976e-06 -2.27638e-08 -3.53753
63 1 Cu 10.2209 10.3212 4.18775 1.10594e-06 -2.3517e-06 3.32576e-06 -3.54318
64 1 Cu 11.4658 11.09 6.26903 -6.52111e-06 3.76499e-06 -1.22038e-06 -3.56077
65 1 Cu 12.75 11.8314 8.36609 -3.35097e-06 5.59525e-06 3.95644e-06 -3.56077
66 1 Cu 14.0488 12.5313 10.4388 -1.48369e-06 -3.84677e-06 -9.02953e-07 -3.54318
67 1 Cu 8.95211 11.0592 -4.52214e-11 2.04676e-06 -3.54507e-06 1.12673e-11 -3.53634
68 1 Cu 10.2419 11.7966 2.10114 1.04006e-06 -6.00484e-07 8.49194e-07 -3.53729
69 1 Cu 11.5092 12.5526 4.18775 2.58957e-06 2.18129e-07 3.32579e-06 -3.54318
70 1 Cu 12.7496 13.3367 6.26136 -5.70402e-06 9.87966e-06 1.70238e-12 -3.55303
71 1 Cu 14.0488 14.0189 8.33498 -1.48368e-06 -2.13358e-06 -3.32579e-06 -3.54318
72 1 Cu 15.3371 14.7383 10.4216 -3.79556e-12 -1.20095e-06 -8.49202e-07 -3.53729
73 1 Cu 5.12885 2.47238e-09 -3.39881e-11 2.00373e-07 -7.29829e-12 9.60599e-12 -3.53976
74 1 Cu 6.39523 0.752239 2.08357 2.96239e-06 1.3687e-06 1.2431e-06 -3.53984
75 1 Cu 15.3371 14.779 4.16687 6.61744e-12 5.42757e-06 -1.91894e-06 -3.53723
76 1 Cu 8.94781 2.22597 6.25191 7.10558e-08 -3.00576e-07 -3.47831e-06 -3.53984
77 1 Cu 10.233 2.94688 8.33504 1.00137e-07 -5.79077e-08 -1.6359e-07 -3.53976
78 1 Cu 11.516 3.68927 10.4277 1.71909e-06 -3.04198e-06 2.2802e-08 -3.53753
79 1 Cu 6.39523 2.21516 0.0146927 2.96241e-06 1.62823e-06 8.76057e-07 -3.53984
80 1 Cu 7.66857 2.95587 2.09011 1.69534e-11 1.79168e-06 1.26691e-06 -3.53976
81 1 Cu 8.943 3.69166 4.17125 -1.55162e-06 8.95878e-07 -1.26692e-06 -3.53976
82 1 Cu 10.2147 4.42035 6.25191 2.95937e-07 8.86913e-08 -3.47839e-06 -3.53984
83 1 Cu 11.5092 5.1572 8.33498 2.58962e-06 -2.17992e-07 -3.32576e-06 -3.54318
84 1 Cu 12.7975 5.90101 10.4388 4.07323e-06 6.385e-07 -9.03026e-07 -3.54318
85 1 Cu 7.66857 4.42745 0.0221215 6.61769e-12 -1.00643e-11 5.75682e-06 -3.53723
86 1 Cu 8.943 5.16325 2.09011 -1.55161e-06 -8.95837e-07 1.26695e-06 -3.53976
87 1 Cu 10.2067 5.89284 4.16687 -4.70046e-06 -2.71382e-06 -1.91896e-06 -3.53723
88 1 Cu 11.4658 6.6198 6.2537 -6.52113e-06 -3.76494e-06 1.22046e-06 -3.56077
89 1 Cu 12.7487 7.36046 8.37483 -3.40782e-06 -1.96755e-06 2.78245e-06 -3.55888
90 1 Cu 14.053 8.11348 10.4785 -3.17016e-06 -1.83026e-06 6.69249e-06 -3.56077
91 1 Cu 8.94781 6.63635 0.0146927 7.10485e-08 -3.37956e-06 8.76058e-07 -3.53984
92 1 Cu 10.2147 7.36781 2.08357 2.95945e-07 -3.24991e-06 1.24308e-06 -3.53984
93 1 Cu 11.4658 8.10265 4.15664 -6.52114e-06 -1.04315e-07 -3.95644e-06 -3.56077
94 1 Cu 12.5516 8.85491 6.26136 -7.69145e-06 1.63402e-11 1.28445e-11 -3.49504
95 1 Cu 13.9444 9.65902 8.53576 -3.84576e-06 2.22035e-06 6.28009e-06 -3.49504
96 1 Cu 15.3371 10.3378 10.4785 8.74807e-13 3.66056e-06 6.69249e-06 -3.56077
97 1 Cu 10.233 8.84064 -5.2974e-12 1.0013e-07 -1.73542e-07 -7.69339e-11 -3.53976
98 1 Cu 11.5092 9.57736 2.08393 2.58962e-06 -3.20822e-06 9.03069e-07 -3.54318
99 1 Cu 12.7487 10.3494 4.1479 -3.40783e-06 1.96747e-06 -2.78251e-06 -3.55888
100 1 Cu 13.9444 11.2673 6.26136 -3.84575e-06 6.66102e-06 1.56276e-12 -3.49504
101 1 Cu 15.3371 11.8438 8.37483 -1.31262e-11 3.93499e-06 2.78245e-06 -3.55888
102 1 Cu 16.6255 12.5313 10.4388 1.48368e-06 -3.84678e-06 -9.02947e-07 -3.54318
103 1 Cu 11.516 11.061 0.00239347 1.7191e-06 -9.92492e-07 -2.87561e-06 -3.53753
104 1 Cu 12.7975 11.8088 2.08393 4.07324e-06 -6.3854e-07 9.0298e-07 -3.54318
105 1 Cu 14.053 12.5837 4.15664 -3.17015e-06 5.69965e-06 -3.95642e-06 -3.56077
106 1 Cu 15.3371 13.3251 6.2537 8.75192e-13 7.52993e-06 1.22039e-06 -3.56077
107 1 Cu 16.6255 14.0189 8.33498 1.48367e-06 -2.13357e-06 -3.32579e-06 -3.54318
108 1 Cu 17.9001 14.7469 10.4277 3.49401e-06 3.21892e-08 2.27648e-08 -3.53753
109 1 Cu 7.66857 2.56659e-09 5.31708e-11 5.17308e-12 1.01323e-11 -3.20252e-11 -3.54288
110 1 Cu 8.94191 0.752239 2.08357 -2.96237e-06 1.3687e-06 1.24309e-06 -3.53984
111 1 Cu 17.8897 14.7732 4.17255 -2.89125e-06 1.40973e-06 1.35915e-06 -3.53984
112 1 Cu 11.5029 2.21373 6.26136 1.17416e-10 2.00616e-10 -7.0142e-12 -3.54288
113 1 Cu 12.7846 2.93665 8.35018 2.8913e-06 -1.40975e-06 -1.35929e-06 -3.53984
114 1 Cu 14.0638 3.67521 10.4392 2.96241e-06 -1.36867e-06 -1.24309e-06 -3.53984
115 1 Cu 8.94191 2.21516 0.0146927 -2.96239e-06 1.62822e-06 8.76057e-07 -3.53984
116 1 Cu 10.2182 2.95543 2.08981 -1.34762e-06 7.78025e-07 5.5015e-07 -3.54008
117 1 Cu 11.4881 3.68518 4.17255 -2.66652e-06 1.79906e-06 1.3593e-06 -3.53984
118 1 Cu 12.7496 4.37309 6.26136 -5.70421e-06 -9.87999e-06 -1.53245e-13 -3.55303
119 1 Cu 14.053 5.12612 8.36609 -3.1702e-06 -5.69962e-06 3.95649e-06 -3.56077
120 1 Cu 15.3371 5.86703 10.4869 1.41159e-12 -6.58657e-06 9.31479e-06 -3.55303
121 1 Cu 10.2211 4.43085 0.0146927 -2.89125e-06 1.75132e-06 8.76054e-07 -3.53984
122 1 Cu 11.4881 5.16231 2.08357 -2.66653e-06 1.88125e-06 1.24307e-06 -3.53984
123 1 Cu 12.75 5.87838 4.15664 -3.35091e-06 -5.5953e-06 -3.95647e-06 -3.56077
124 1 Cu 13.9444 6.44255 6.26136 -3.84567e-06 -6.6609e-06 4.36424e-12 -3.49504
125 1 Cu 15.3371 7.24667 8.53576 -3.75517e-12 -4.44064e-06 6.28001e-06 -3.49504
126 1 Cu 16.6213 8.11348 10.4785 3.17016e-06 -1.83026e-06 6.69249e-06 -3.56077
127 1 Cu 11.5029 6.64118 -7.35904e-11 1.36439e-10 7.11612e-11 2.22725e-10 -3.54288
128 1 Cu 12.7496 7.36097 2.03587 -5.70423e-06 -3.29334e-06 -9.31498e-06 -3.55303
129 1 Cu 13.9444 8.05079 3.98697 -3.84566e-06 -2.22029e-06 -6.27995e-06 -3.49504
130 1 Cu 16.7299 9.65902 8.53576 3.84574e-06 2.22034e-06 6.2801e-06 -3.49504
131 1 Cu 17.9247 10.3488 10.4869 5.70398e-06 3.29319e-06 9.31457e-06 -3.55303
132 1 Cu 12.7846 8.8515 -0.0146927 2.8913e-06 -1.75147e-06 -8.76036e-07 -3.53984
133 1 Cu 14.053 9.59633 2.04425 -3.17019e-06 1.83035e-06 -6.69249e-06 -3.56077
134 1 Cu 15.3371 10.4631 3.98697 -3.75384e-12 4.44066e-06 -6.28004e-06 -3.49504
135 1 Cu 16.7299 11.2673 6.26136 3.84573e-06 6.66103e-06 -7.82715e-12 -3.49504
136 1 Cu 17.9243 11.8314 8.36609 3.35095e-06 5.59523e-06 3.95643e-06 -3.56077
137 1 Cu 19.1862 12.5475 10.4392 2.66648e-06 -1.88109e-06 -1.24312e-06 -3.53984
138 1 Cu 14.0638 11.0672 -0.0146927 2.96239e-06 -1.62822e-06 -8.76032e-07 -3.53984
139 1 Cu 15.3371 11.8428 2.03587 1.41236e-12 6.5865e-06 -9.31476e-06 -3.55303
140 1 Cu 16.6213 12.5837 4.15664 3.17015e-06 5.69964e-06 -3.95642e-06 -3.56077
141 1 Cu 17.9247 13.3367 6.26136 5.704e-06 9.87962e-06 -5.03923e-12 -3.55303
142 1 Cu 19.1862 14.0246 8.35018 2.66648e-06 -1.79906e-06 -1.35915e-06 -3.53984
143 1 Cu 20.4561 14.7544 10.4329 1.34758e-06 -7.7806e-07 -5.50171e-07 -3.54008
144 1 Cu 10.2083 2.61826e-09 6.91623e-11 -2.00364e-07 -1.67234e-11 2.9427e-12 -3.53976
145 1 Cu 11.4897 0.738182 2.09507 -1.71911e-06 3.042e-06 -2.27542e-08 -3.53753
146 1 Cu 20.4413 14.7629 4.18769 -1.00225e-07 5.77697e-08 1.63599e-07 -3.53976
147 1 Cu 14.0579 2.20149 6.27082 -7.1177e-08 3.00622e-07 3.47839e-06 -3.53984
148 1 Cu 15.3371 2.93078 8.35586 -1.21345e-11 -5.42764e-06 1.91895e-06 -3.53723
149 1 Cu 16.6105 3.67521 10.4392 -2.96241e-06 -1.36867e-06 -1.24309e-06 -3.53984
150 1 Cu 11.4897 2.22131 -0.00239347 -1.7191e-06 9.92551e-07 2.87561e-06 -3.53753
151 1 Cu 12.7741 2.96288 2.09507 -3.49396e-06 -3.22311e-08 -2.27878e-08 -3.53753
152 1 Cu 14.0488 3.69093 4.18775 -1.4836e-06 2.13367e-06 3.32576e-06 -3.54318
153 1 Cu 15.3371 4.38469 6.26903 4.22826e-12 -7.52995e-06 -1.22046e-06 -3.56077
154 1 Cu 16.6213 5.12612 8.36609 3.17019e-06 -5.69962e-06 3.95648e-06 -3.56077
155 1 Cu 17.8768 5.90101 10.4388 -4.07323e-06 6.38488e-07 -9.0303e-07 -3.54318
156 1 Cu 12.7727 4.44171 9.70046e-11 -1.00233e-07 1.73497e-07 -7.91759e-11 -3.53976
157 1 Cu 14.0488 5.17856 2.08393 -1.48359e-06 3.84679e-06 9.03059e-07 -3.54318
158 1 Cu 15.3371 5.86601 4.1479 6.19354e-13 -3.93505e-06 -2.78251e-06 -3.55888
159 1 Cu 16.7299 6.44255 6.26136 3.84568e-06 -6.66092e-06 -4.47005e-12 -3.49504
160 1 Cu 17.9256 7.36046 8.37483 3.40782e-06 -1.96756e-06 2.78244e-06 -3.55888
161 1 Cu 19.1651 8.13245 10.4388 -2.58956e-06 3.20829e-06 -9.02942e-07 -3.54318
162 1 Cu 14.0579 6.64601 -0.0146927 -7.11844e-08 3.37968e-06 -8.76034e-07 -3.53984
163 1 Cu 15.3371 7.37206 2.04425 4.22862e-12 -3.66065e-06 -6.69249e-06 -3.56077
164 1 Cu 16.7299 8.05079 3.98697 3.84567e-06 -2.2203e-06 -6.27996e-06 -3.49504
165 1 Cu 18.1227 8.85491 6.26136 7.69139e-06 -1.01793e-11 -5.90805e-12 -3.49504
166 1 Cu 19.2085 9.60717 8.36609 6.52107e-06 1.04395e-07 3.95646e-06 -3.56077