 # File generated with Atomsk by hari on 2023-02-03 00:41:40
 
         107  atoms
           1  atom types
 
      0.000000000000      10.845000000000  xlo xhi
      0.000000000000      10.845000000000  ylo yhi
      0.000000000000      10.845000000000  zlo zhi
 
Masses
 
            1   63.54600000             # Cu
 
Atoms # atomic
 
         1    1        0.000000000000       1.807500000000       1.807500000000
         2    1        1.807500000000       0.000000000000       1.807500000000
         3    1        1.807500000000       1.807500000000       0.000000000000
         4    1        0.000000000000       0.000000000000       3.615000000000
         5    1        0.000000000000       1.807500000000       5.422500000000
         6    1        1.807500000000       0.000000000000       5.422500000000
         7    1        1.807500000000       1.807500000000       3.615000000000
         8    1        0.000000000000       0.000000000000       7.230000000000
         9    1        0.000000000000       1.807500000000       9.037500000000
        10    1        1.807500000000       0.000000000000       9.037500000000
        11    1        1.807500000000       1.807500000000       7.230000000000
        12    1        0.000000000000       3.615000000000       0.000000000000
        13    1        0.000000000000       5.422500000000       1.807500000000
        14    1        1.807500000000       3.615000000000       1.807500000000
        15    1        1.807500000000       5.422500000000       0.000000000000
        16    1        0.000000000000       3.615000000000       3.615000000000
        17    1        0.000000000000       5.422500000000       5.422500000000
        18    1        1.807500000000       3.615000000000       5.422500000000
        19    1        1.807500000000       5.422500000000       3.615000000000
        20    1        0.000000000000       3.615000000000       7.230000000000
        21    1        0.000000000000       5.422500000000       9.037500000000
        22    1        1.807500000000       3.615000000000       9.037500000000
        23    1        1.807500000000       5.422500000000       7.230000000000
        24    1        0.000000000000       7.230000000000       0.000000000000
        25    1        0.000000000000       9.037500000000       1.807500000000
        26    1        1.807500000000       7.230000000000       1.807500000000
        27    1        1.807500000000       9.037500000000       0.000000000000
        28    1        0.000000000000       7.230000000000       3.615000000000
        29    1        0.000000000000       9.037500000000       5.422500000000
        30    1        1.807500000000       7.230000000000       5.422500000000
        31    1        1.807500000000       9.037500000000       3.615000000000
        32    1        0.000000000000       7.230000000000       7.230000000000
        33    1        0.000000000000       9.037500000000       9.037500000000
        34    1        1.807500000000       7.230000000000       9.037500000000
        35    1        1.807500000000       9.037500000000       7.230000000000
        36    1        3.615000000000       0.000000000000       0.000000000000
        37    1        3.615000000000       1.807500000000       1.807500000000
        38    1        5.422500000000       0.000000000000       1.807500000000
        39    1        5.422500000000       1.807500000000       0.000000000000
        40    1        3.615000000000       0.000000000000       3.615000000000
        41    1        3.615000000000       1.807500000000       5.422500000000
        42    1        5.422500000000       0.000000000000       5.422500000000
        43    1        5.422500000000       1.807500000000       3.615000000000
        44    1        3.615000000000       0.000000000000       7.230000000000
        45    1        3.615000000000       1.807500000000       9.037500000000
        46    1        5.422500000000       0.000000000000       9.037500000000
        47    1        5.422500000000       1.807500000000       7.230000000000
        48    1        3.615000000000       3.615000000000       0.000000000000
        49    1        3.615000000000       5.422500000000       1.807500000000
        50    1        5.422500000000       3.615000000000       1.807500000000
        51    1        5.422500000000       5.422500000000       0.000000000000
        52    1        3.615000000000       3.615000000000       3.615000000000
        53    1        3.615000000000       5.422500000000       5.422500000000
        54    1        5.422500000000       3.615000000000       5.422500000000
        55    1        5.422500000000       5.422500000000       3.615000000000
        56    1        3.615000000000       3.615000000000       7.230000000000
        57    1        3.615000000000       5.422500000000       9.037500000000
        58    1        5.422500000000       3.615000000000       9.037500000000
        59    1        5.422500000000       5.422500000000       7.230000000000
        60    1        3.615000000000       7.230000000000       0.000000000000
        61    1        3.615000000000       9.037500000000       1.807500000000
        62    1        5.422500000000       7.230000000000       1.807500000000
        63    1        5.422500000000       9.037500000000       0.000000000000
        64    1        3.615000000000       7.230000000000       3.615000000000
        65    1        3.615000000000       9.037500000000       5.422500000000
        66    1        5.422500000000       7.230000000000       5.422500000000
        67    1        5.422500000000       9.037500000000       3.615000000000
        68    1        3.615000000000       7.230000000000       7.230000000000
        69    1        3.615000000000       9.037500000000       9.037500000000
        70    1        5.422500000000       7.230000000000       9.037500000000
        71    1        5.422500000000       9.037500000000       7.230000000000
        72    1        7.230000000000       0.000000000000       0.000000000000
        73    1        7.230000000000       1.807500000000       1.807500000000
        74    1        9.037500000000       0.000000000000       1.807500000000
        75    1        9.037500000000       1.807500000000       0.000000000000
        76    1        7.230000000000       0.000000000000       3.615000000000
        77    1        7.230000000000       1.807500000000       5.422500000000
        78    1        9.037500000000       0.000000000000       5.422500000000
        79    1        9.037500000000       1.807500000000       3.615000000000
        80    1        7.230000000000       0.000000000000       7.230000000000
        81    1        7.230000000000       1.807500000000       9.037500000000
        82    1        9.037500000000       0.000000000000       9.037500000000
        83    1        9.037500000000       1.807500000000       7.230000000000
        84    1        7.230000000000       3.615000000000       0.000000000000
        85    1        7.230000000000       5.422500000000       1.807500000000
        86    1        9.037500000000       3.615000000000       1.807500000000
        87    1        9.037500000000       5.422500000000       0.000000000000
        88    1        7.230000000000       3.615000000000       3.615000000000
        89    1        7.230000000000       5.422500000000       5.422500000000
        90    1        9.037500000000       3.615000000000       5.422500000000
        91    1        9.037500000000       5.422500000000       3.615000000000
        92    1        7.230000000000       3.615000000000       7.230000000000
        93    1        7.230000000000       5.422500000000       9.037500000000
        94    1        9.037500000000       3.615000000000       9.037500000000
        95    1        9.037500000000       5.422500000000       7.230000000000
        96    1        7.230000000000       7.230000000000       0.000000000000
        97    1        7.230000000000       9.037500000000       1.807500000000
        98    1        9.037500000000       7.230000000000       1.807500000000
        99    1        9.037500000000       9.037500000000       0.000000000000
       100    1        7.230000000000       7.230000000000       3.615000000000
       101    1        7.230000000000       9.037500000000       5.422500000000
       102    1        9.037500000000       7.230000000000       5.422500000000
       103    1        9.037500000000       9.037500000000       3.615000000000
       104    1        7.230000000000       7.230000000000       7.230000000000
       105    1        7.230000000000       9.037500000000       9.037500000000
       106    1        9.037500000000       7.230000000000       9.037500000000
       107    1        9.037500000000       9.037500000000       7.230000000000
