ITEM: TIMESTEP
91
ITEM: NUMBER OF ATOMS
215
ITEM: BOX BOUNDS xy xz yz pp pp pp
0.0000000000000000e+00 3.0674292160000000e+01 7.6685730400000001e+00
0.0000000000000000e+00 1.7709810839999999e+01 7.6685730400000001e+00
0.0000000000000000e+00 1.2522727339999999e+01 4.4274527099999998e+00
ITEM: ATOMS id type x y z
1 1 7.66777 4.42699 12.5214
2 1 1.27928 0.738595 2.08906
3 1 2.55739 1.47651 4.1762
4 1 3.83616 2.21481 6.26442
5 1 5.11162 2.95119 8.34724
6 1 6.38877 3.68856 10.4328
7 1 8.96021 6.65409 12.5098
8 1 2.57025 2.96159 2.08146
9 1 3.84085 3.6922 4.17973
10 1 5.1161 4.42004 6.26239
11 1 6.39017 5.16135 8.34123
12 1 7.67389 5.91091 10.4217
13 1 10.2352 8.87656 12.5153
14 1 3.84965 5.17454 2.09174
15 1 5.13394 5.89034 4.17171
16 1 6.40909 6.62474 6.25095
17 1 7.67151 7.37717 8.33092
18 1 24.2849 8.13543 10.4174
19 1 19.154 6.65583 0.010892
20 1 5.12327 7.36831 2.08358
21 1 6.41814 8.09291 4.16604
22 1 7.69039 8.84281 6.2577
23 1 24.2724 9.60327 8.35111
24 1 25.5344 10.3549 10.4441
25 1 28.1017 13.2765 12.5184
26 1 6.38044 9.56919 2.09061
27 1 23.0007 10.3122 4.19049
28 1 24.2826 11.0676 6.27977
29 1 25.5453 11.8223 8.35914
30 1 26.8175 12.5586 10.4396
31 1 21.7158 11.0572 0.00329928
32 1 22.9921 11.7936 2.09996
33 1 24.275 12.5375 4.18853
34 1 25.5639 13.2846 6.26981
35 1 26.8368 14.028 8.34837
36 1 28.1112 14.758 10.431
37 1 10.2427 4.43272 12.5098
38 1 3.84994 0.745108 2.08146
39 1 5.11797 1.48017 4.17973
40 1 6.38592 2.22065 6.26239
41 1 7.66494 2.95338 8.34123
42 1 8.95594 3.69033 10.4217
43 1 11.534 6.65916 12.5071
44 1 5.13051 2.9621 2.09377
45 1 6.39277 3.69087 4.18343
46 1 7.66302 4.42425 6.25819
47 1 8.94532 5.16458 8.32972
48 1 10.2454 5.91519 10.4099
49 1 5.11759 4.44792 0.0233659
50 1 6.40163 5.1678 2.10871
51 1 7.67823 5.89562 4.17296
52 1 8.93988 6.63176 6.24653
53 1 10.2044 7.38119 8.33048
54 1 11.4924 8.13677 10.4337
55 1 6.36197 6.65513 0.0495027
56 1 7.6759 7.37124 2.09728
57 1 8.94828 8.10538 4.17
58 1 10.1978 8.85228 6.26271
59 1 11.421 9.60306 8.36819
60 1 12.718 10.3542 10.4937
61 1 7.65708 8.84467 0.00307981
62 1 8.94545 9.57936 2.08825
63 1 10.2155 10.3271 4.18266
64 1 11.4866 11.0734 6.27571
65 1 12.7403 11.8262 8.36458
66 1 14.0349 12.55 10.4418
67 1 16.6163 15.4845 12.5158
68 1 10.2304 11.8015 2.09051
69 1 11.5023 12.5516 4.1786
70 1 12.7817 13.2925 6.26942
71 1 14.0452 14.0343 8.34148
72 1 15.3308 14.7604 10.4294
73 1 12.8049 4.42566 12.5153
74 1 6.40611 0.746622 2.09174
75 1 7.66815 1.50095 4.17171
76 1 8.94174 2.23806 6.25095
77 1 10.2246 2.95514 8.33092
78 1 19.1879 16.9636 10.4174
79 1 6.4108 2.20801 0.0233659
80 1 7.67627 2.96008 2.10871
81 1 8.94488 3.70173 4.17296
82 1 10.2132 4.42629 6.24653
83 1 11.4945 5.1467 8.33048
84 1 12.7928 5.88431 10.4337
85 1 7.66006 4.42253 0.0483627
86 1 8.95456 5.16991 2.10277
87 1 10.2201 5.90057 4.164
88 1 11.4754 6.62531 6.25738
89 1 12.7211 7.34451 8.37738
90 1 14.0096 8.08845 10.5071
91 1 8.94289 6.64788 0.0315819
92 1 10.2244 7.37644 2.09256
93 1 11.4867 8.11494 4.17105
94 1 12.666 8.85266 6.30831
95 1 13.8468 9.61664 8.45085
96 1 15.2025 10.3703 10.6121
97 1 10.232 8.84381 0.000999843
98 1 11.5048 9.58283 2.08238
99 1 12.7509 10.3488 4.15016
100 1 14.0473 11.1266 6.28793
101 1 15.2539 11.9057 8.31669
102 1 16.6145 12.5789 10.4591
103 1 19.1801 15.4883 12.5158
104 1 12.7899 11.8134 2.08067
105 1 14.068 12.5637 4.16802
106 1 15.3389 13.3265 6.24279
107 1 16.6171 14.0408 8.3334
108 1 17.9018 14.7594 10.4224
109 1 15.3411 13.26 0.010892
110 1 8.94278 0.752723 2.08358
111 1 10.2177 1.51182 4.16604
112 1 11.5033 2.23867 6.2577
113 1 20.4529 16.2189 8.35111
114 1 21.7348 16.936 10.4441
115 1 8.9445 2.18206 0.0495027
116 1 10.2216 2.9619 2.09728
117 1 11.4936 3.69675 4.17
118 1 12.7652 4.40544 6.26271
119 1 14.027 5.08933 8.36819
120 1 15.326 5.83699 10.4937
121 1 10.2287 4.42083 0.0315819
122 1 11.5004 5.16636 2.09256
123 1 12.7711 5.89031 4.17105
124 1 13.9996 6.54277 6.30831
125 1 15.2517 7.18336 8.45085
126 1 16.5821 7.98059 10.6121
127 1 11.5295 6.65658 0.0435647
128 1 12.7703 7.37295 2.06975
129 1 13.9802 8.07146 4.04545
130 1 15.7136 9.07226 6.87614
131 1 18.0141 10.4005 10.6328
132 1 12.7869 8.85592 0.000255586
133 1 14.0576 9.59926 2.07191
134 1 15.3768 10.4177 4.095
135 1 16.6851 11.2553 6.13342
136 1 18.0146 11.9939 8.31598
137 1 19.1933 12.566 10.4462
138 1 21.7309 15.4854 12.5172
139 1 15.3398 11.821 2.06434
140 1 16.6254 12.6078 4.11878
141 1 17.9273 13.3618 6.24037
142 1 19.2038 14.0694 8.34828
143 1 20.4624 14.7535 10.4413
144 1 25.5487 17.6986 12.5184
145 1 11.4774 0.741025 2.09061
146 1 20.4309 14.7631 4.19049
147 1 21.7261 15.4955 6.27977
148 1 23.0111 16.2117 8.35914
149 1 24.2848 16.9453 10.4396
150 1 11.4882 2.20889 0.00307981
151 1 12.7687 2.95731 2.08825
152 1 14.0513 3.68335 4.18266
153 1 15.3331 4.41105 6.27571
154 1 16.6119 5.12031 8.36458
155 1 17.886 5.87954 10.4418
156 1 12.775 4.43926 0.000999843
157 1 14.0514 5.17199 2.08238
158 1 15.3377 5.86817 4.15016
159 1 16.6596 6.60196 6.28793
160 1 17.9376 7.25744 8.31669
161 1 19.2009 8.09917 10.4591
162 1 14.0629 6.64584 0.000255586
163 1 15.342 7.37463 2.07191
164 1 16.7104 8.10782 4.095
165 1 18.0899 8.82203 6.13342
166 1 19.3943 9.6042 8.31598
167 1 20.4791 10.3389 10.4462
168 1 22.9989 13.2784 12.5142
169 1 16.6212 9.59623 2.05586
170 1 17.9369 10.3559 4.11867
171 1 19.2463 11.1119 6.23137
172 1 20.4919 11.831 8.35533
173 1 21.7378 12.5503 10.4494
174 1 24.2771 15.4867 12.5078
175 1 17.8774 11.8112 2.0655
176 1 19.1585 12.5628 4.17436
177 1 20.4568 13.304 6.28305
178 1 21.7438 14.0256 8.36594
179 1 23.0091 14.7469 10.4395
180 1 20.4338 13.2778 0.00329928
181 1 21.7096 14.015 2.09996
182 1 22.9953 14.754 4.18853
183 1 24.2868 15.4967 6.26981
184 1 25.567 16.2274 8.34837
185 1 26.8364 16.966 10.431
186 1 21.7181 6.64788 12.5158
187 1 15.3356 2.95905 2.09051
188 1 16.6212 3.68546 4.1786
189 1 17.9025 4.42304 6.26942
190 1 19.1767 5.14636 8.34148
191 1 20.4483 5.89665 10.4294
192 1 23.0034 8.8663 12.5158
193 1 16.6257 5.16968 2.08067
194 1 17.9145 5.90142 4.16802
195 1 19.2106 6.62064 6.24279
196 1 20.4683 7.37039 8.3334
197 1 21.7329 8.12366 10.4224
198 1 24.2762 11.0768 12.5172
199 1 17.9071 7.37413 2.06434
200 1 19.2314 8.09411 4.11878
201 1 20.5353 8.84458 6.24037
202 1 21.7863 9.59629 8.34828
203 1 23.0081 10.3442 10.4413
204 1 25.5505 13.2813 12.5078
205 1 19.1675 9.5767 2.0655
206 1 20.4589 10.3103 4.17436
207 1 21.75 11.0641 6.28305
208 1 23.0185 11.8179 8.36594
209 1 24.2757 12.553 10.4395
210 1 26.8251 15.4875 12.515
211 1 20.4217 11.7905 2.10102
212 1 21.7045 12.5311 4.20292
213 1 23.0051 13.282 6.28331
214 1 24.2906 14.0242 8.35405
215 1 25.5612 14.7577 10.4285
 10.4386
