ITEM: TIMESTEP
85
ITEM: NUMBER OF ATOMS
107
ITEM: BOX BOUNDS pp pp pp
0.0000000000000000e+00 1.0845000000000001e+01
0.0000000000000000e+00 1.0845000000000001e+01
0.0000000000000000e+00 1.0845000000000001e+01
ITEM: ATOMS id type x y z
1 1 2.99646e-18 0.90375 0.90375
2 1 2.01701 -0.112563 1.92006
3 1 2.01701 1.92006 -0.112563
4 1 -3.16873e-16 -0.118173 3.68321
5 1 -4.7498e-16 1.82279 5.47754
6 1 1.84354 -0.0169236 5.43988
7 1 1.9939 1.79167 3.74856
8 1 -4.41584e-16 -0.015291 7.17496
9 1 -3.35148e-16 1.92567 8.96929
10 1 1.9939 0.0158273 8.90394
11 1 1.84354 1.82442 7.21262
12 1 -2.60259e-16 3.68321 -0.118173
13 1 -3.8556e-16 5.47754 1.82279
14 1 1.9939 3.74856 1.79167
15 1 1.84354 5.43988 -0.0169236
16 1 3.65902e-17 3.80015 3.80015
17 1 -3.40021e-16 5.462 5.462
18 1 1.8328 3.63661 5.44904
19 1 1.8328 5.44904 3.63661
20 1 -3.33874e-16 3.65593 7.21125
21 1 -8.1349e-17 5.44125 8.99657
22 1 1.84295 3.66178 8.99072
23 1 1.82278 5.43404 7.21846
24 1 -4.87072e-16 7.17496 -0.015291
25 1 -3.31678e-16 8.96929 1.92567
26 1 1.84354 7.21262 1.82442
27 1 1.9939 8.90394 0.0158273
28 1 -6.70313e-17 7.21125 3.65593
29 1 2.32535e-16 8.99657 5.44125
30 1 1.82278 7.21846 5.43404
31 1 1.84295 8.99072 3.66178
32 1 -3.24709e-16 7.1905 7.1905
33 1 9.83744e-17 8.85235 8.85235
34 1 1.8328 7.20346 9.01589
35 1 1.8328 9.01589 7.20346
36 1 3.72028 -0.0187545 -0.0187545
37 1 3.72028 1.82625 1.82625
38 1 5.4225 -0.0298358 1.83734
39 1 5.4225 1.83734 -0.0298358
40 1 3.69694 -0.0265937 3.68429
41 1 3.66881 1.82025 5.46563
42 1 5.4225 -0.0212808 5.44626
43 1 5.4225 1.81999 3.66425
44 1 3.66881 -0.0127544 7.18687
45 1 3.69694 1.83409 8.96821
46 1 5.4225 -0.0124938 8.98825
47 1 5.4225 1.82878 7.20624
48 1 3.69694 3.68429 -0.0265937
49 1 3.66881 5.46563 1.82025
50 1 5.4225 3.66425 1.81999
51 1 5.4225 5.44626 -0.0212808
52 1 3.66205 3.6446 3.6446
53 1 3.62248 5.43816 5.43816
54 1 5.4225 3.64731 5.44581
55 1 5.4225 5.44581 3.64731
56 1 3.63645 3.64783 7.21627
57 1 3.63645 5.43623 9.00467
58 1 5.4225 3.66008 8.99242
59 1 5.4225 5.43688 7.21562
60 1 3.66881 7.18687 -0.0127544
61 1 3.69694 8.96821 1.83409
62 1 5.4225 7.20624 1.82878
63 1 5.4225 8.98825 -0.0124938
64 1 3.63645 7.21627 3.64783
65 1 3.63645 9.00467 5.43623
66 1 5.4225 7.21562 5.43688
67 1 5.4225 8.99242 3.66008
68 1 3.62248 7.21434 7.21434
69 1 3.66205 9.0079 9.0079
70 1 5.4225 7.20669 9.00519
71 1 5.4225 9.00519 7.20669
72 1 7.12472 -0.0187545 -0.0187545
73 1 7.12472 1.82625 1.82625
74 1 8.82799 -0.112563 1.92006
75 1 8.82799 1.92006 -0.112563
76 1 7.14806 -0.0265937 3.68429
77 1 7.17619 1.82025 5.46563
78 1 9.00146 -0.0169236 5.43988
79 1 8.8511 1.79167 3.74856
80 1 7.17619 -0.0127544 7.18687
81 1 7.14806 1.83409 8.96821
82 1 8.8511 0.0158273 8.90394
83 1 9.00146 1.82442 7.21262
84 1 7.14806 3.68429 -0.0265937
85 1 7.17619 5.46563 1.82025
86 1 8.8511 3.74856 1.79167
87 1 9.00146 5.43988 -0.0169236
88 1 7.18295 3.6446 3.6446
89 1 7.22252 5.43816 5.43816
90 1 9.0122 3.63661 5.44904
91 1 9.0122 5.44904 3.63661
92 1 7.20855 3.64783 7.21627
93 1 7.20855 5.43623 9.00467
94 1 9.00205 3.66178 8.99072
95 1 9.02222 5.43404 7.21846
96 1 7.17619 7.18687 -0.0127544
97 1 7.14806 8.96821 1.83409
98 1 9.00146 7.21262 1.82442
99 1 8.8511 8.90394 0.0158273
100 1 7.20855 7.21627 3.64783
101 1 7.20855 9.00467 5.43623
102 1 9.02222 7.21846 5.43404
103 1 9.00205 8.99072 3.66178
104 1 7.22252 7.21434 7.21434
105 1 7.18295 9.0079 9.0079
106 1 9.0122 7.20346 9.01589
107 1 9.0122 9.01589 7.20346
 1 9.01023 7.18323 9.01023
107 1 9.01023 9.01023 7.18323
