ITEM: TIMESTEP
0
ITEM: NUMBER OF ATOMS
107
ITEM: BOX BOUNDS pp pp pp
0.0000000000000000e+00 1.0845000000000001e+01
0.0000000000000000e+00 1.0845000000000001e+01
0.0000000000000000e+00 1.0845000000000001e+01
ITEM: ATOMS id type element xsu ysu zsu fx fy fz
1 1 Cu                    0   0.0416666666666288   0.0416666666666288 4.44089209850063e-16 -2.77555756156289e-17  4.5102810375397e-17
2 1 Cu    0.166666666666629                    0    0.166666666666629  -0.0595148325882032   0.0367471692378383  -0.0249523094730464
3 1 Cu    0.166666666666629    0.166666666666629                    0  -0.0595148325882032  -0.0249523094730464   0.0367471692378383
4 1 Cu                    0                    0    0.333333333333371 -4.16333634234434e-16   0.0544532549344231  -0.0519102087620607
5 1 Cu                    0    0.166666666666629                  0.5 -4.37150315946155e-16 -0.000880884107806939   0.0948702904880899
6 1 Cu    0.166666666666629                    0                  0.5 -0.00264837339118802 -0.000963218917241234   0.0162316946018723
7 1 Cu    0.166666666666629    0.166666666666629    0.333333333333371  -0.0697876757294575  -0.0190039782075223  -0.0836354606789714
8 1 Cu                    0                    0    0.666666666666629 -3.33066907387547e-16   0.0106423038208351  -0.0568117730832852
9 1 Cu                    0    0.166666666666629    0.833333333333371 -2.42861286636753e-16  -0.0201588449453706  -0.0736574097847274
10 1 Cu    0.166666666666629                    0    0.833333333333371   -0.074116758207824  0.00867264651906685   0.0731699798021296
11 1 Cu    0.166666666666629    0.166666666666629    0.666666666666629 -0.00713837210675308 0.000874398589468201  -0.0101738996237839
12 1 Cu                    0    0.333333333333371                    0 -3.95516952522712e-16  -0.0519102087620608   0.0544532549344231
13 1 Cu                    0                  0.5    0.166666666666629 -4.09394740330526e-16     0.09487029048809 -0.000880884107806977
14 1 Cu    0.166666666666629    0.333333333333371    0.166666666666629  -0.0697876757294575  -0.0836354606789714  -0.0190039782075223
15 1 Cu    0.166666666666629                  0.5                    0 -0.00264837339118811   0.0162316946018724 -0.000963218917241062
16 1 Cu                    0    0.333333333333371    0.333333333333371 -4.68375338513738e-16  -0.0534162131643033  -0.0534162131643033
17 1 Cu                    0                  0.5                  0.5 -5.06539254985228e-16 -0.00922237058475335 -0.00922237058475333
18 1 Cu    0.166666666666629    0.333333333333371                  0.5 -2.35920283032306e-05 -0.000435439628651708  0.00603525840161278
19 1 Cu    0.166666666666629                  0.5    0.333333333333371 -2.35920283032931e-05  0.00603525840161276 -0.000435439628651798
20 1 Cu                    0    0.333333333333371    0.666666666666629 -4.19803081186387e-16  -0.0108753307905928 -0.000653547147752009
21 1 Cu                    0                  0.5    0.833333333333371 -2.77555756156289e-16  -0.0003828106471674   0.0108542757682411
22 1 Cu    0.166666666666629    0.333333333333371    0.833333333333371 -0.00595861352782509  -0.0110651031485526  0.00418821173235779
23 1 Cu    0.166666666666629                  0.5    0.666666666666629 0.000961261132164725   0.0013388822656789  0.00110967090955278
24 1 Cu                    0    0.666666666666629                    0 -3.46944695195361e-16  -0.0568117730832851   0.0106423038208352
25 1 Cu                    0    0.833333333333371    0.166666666666629 -2.74086309204336e-16  -0.0736574097847276  -0.0201588449453706
26 1 Cu    0.166666666666629    0.666666666666629    0.166666666666629 -0.00713837210675318  -0.0101738996237839 0.000874398589468248
27 1 Cu    0.166666666666629    0.833333333333371                    0  -0.0741167582078241   0.0731699798021295  0.00867264651906678
28 1 Cu                    0    0.666666666666629    0.333333333333371 -5.13478148889135e-16 -0.000653547147751854  -0.0108753307905928
29 1 Cu                    0    0.833333333333371                  0.5 -2.56739074444567e-16   0.0108542757682411 -0.000382810647167458
30 1 Cu    0.166666666666629    0.666666666666629                  0.5 0.000961261132164732  0.00110967090955287  0.00133888226567889
31 1 Cu    0.166666666666629    0.833333333333371    0.333333333333371 -0.00595861352782506  0.00418821173235776  -0.0110651031485525
32 1 Cu                    0    0.666666666666629    0.666666666666629 -3.60822483003176e-16  0.00824369815785843  0.00824369815785843
33 1 Cu                    0    0.833333333333371    0.833333333333371 -1.52655665885959e-16    0.115087351045808    0.115087351045808
34 1 Cu    0.166666666666629    0.666666666666629    0.833333333333371  0.00770614895569794  -0.0125440270099145 -0.00532335987349714
35 1 Cu    0.166666666666629    0.833333333333371    0.666666666666629  0.00770614895569791 -0.00532335987349716  -0.0125440270099146
36 1 Cu    0.333333333333371                    0                    0  0.00946994977142933    0.011354436921986    0.011354436921986
37 1 Cu    0.333333333333371    0.166666666666629    0.166666666666629    0.051609896663839  -0.0129441512592619  -0.0129441512592618
38 1 Cu                  0.5                    0    0.166666666666629 1.87783816274489e-16  0.00417730551882025 -0.00117320356393323
39 1 Cu                  0.5    0.166666666666629                    0 2.16840434497101e-16 -0.00117320356393323  0.00417730551882025
40 1 Cu    0.333333333333371                    0    0.333333333333371 0.000532216935400151 -0.00201688789981187 -0.00377194747952593
41 1 Cu    0.333333333333371    0.166666666666629                  0.5 -0.00833689099458016  0.00119505842659141 -0.00563439184817534
42 1 Cu                  0.5                    0                  0.5 2.16840434497101e-16 -0.000800682093413752 5.36345500148629e-05
43 1 Cu                  0.5    0.166666666666629    0.333333333333371 2.04805790382512e-16  0.00307379433995503 -0.00416983828598726
44 1 Cu    0.333333333333371                    0    0.666666666666629 -0.00712109461644939 -0.00470291441088181  0.00470268299923601
45 1 Cu    0.333333333333371    0.166666666666629    0.833333333333371 -0.00964026780823106 0.000688537780832065   0.0101575376728993
46 1 Cu                  0.5                    0    0.833333333333371 2.03830008427275e-16 -0.00532767000790178 0.000958837015339716
47 1 Cu                  0.5    0.166666666666629    0.666666666666629 2.98372437868011e-16 -0.000861589685607909 0.000230830427719559
48 1 Cu    0.333333333333371    0.333333333333371                    0 0.000532216935400158 -0.00377194747952606 -0.00201688789981192
49 1 Cu    0.333333333333371                  0.5    0.166666666666629  -0.0083368909945802 -0.00563439184817528  0.00119505842659141
50 1 Cu                  0.5    0.333333333333371    0.166666666666629 2.10226801244939e-16 -0.00416983828598731  0.00307379433995509
51 1 Cu                  0.5                  0.5                    0 1.74339709335669e-16 5.36345500149809e-05 -0.000800682093413628
52 1 Cu    0.333333333333371    0.333333333333371    0.333333333333371   0.0079847860609943  0.00320349843298896  0.00320349843298904
53 1 Cu    0.333333333333371                  0.5                  0.5 -0.00302684199074753 -0.00379382853779859 -0.00379382853779863
54 1 Cu                  0.5    0.333333333333371                  0.5 1.18394877235417e-16  0.00106125351632887 -0.00263682441584644
55 1 Cu                  0.5                  0.5    0.333333333333371 1.87350135405495e-16 -0.00263682441584638  0.00106125351632884
56 1 Cu    0.333333333333371    0.333333333333371    0.666666666666629 -0.00178074960975971 -4.19376820078587e-05 -0.00137636382338866
57 1 Cu    0.333333333333371                  0.5    0.833333333333371 -0.00391788067302056  0.00152493456998234  0.00265913408874206
58 1 Cu                  0.5    0.333333333333371    0.833333333333371 2.93981419069445e-16  0.00173845875368927 -0.000323407906616548
59 1 Cu                  0.5                  0.5    0.666666666666629 2.83627288322208e-16 0.000430673540225994 -0.000284919427184106
60 1 Cu    0.333333333333371    0.666666666666629                    0 -0.00712109461644944  0.00470268299923606 -0.00470291441088176
61 1 Cu    0.333333333333371    0.833333333333371    0.166666666666629 -0.00964026780823097   0.0101575376728992 0.000688537780832058
62 1 Cu                  0.5    0.666666666666629    0.166666666666629 3.05745012640912e-16 0.000230830427719549 -0.000861589685607893
63 1 Cu                  0.5    0.833333333333371                    0 2.02095284951298e-16 0.000958837015339526 -0.00532767000790177
64 1 Cu    0.333333333333371    0.666666666666629    0.333333333333371  -0.0017807496097597 -0.00137636382338871 -4.19376820077935e-05
65 1 Cu    0.333333333333371    0.833333333333371                  0.5 -0.00391788067302047    0.002659134088742  0.00152493456998228
66 1 Cu                  0.5    0.666666666666629                  0.5 2.35922392732846e-16 -0.000284919427184008 0.000430673540225933
67 1 Cu                  0.5    0.833333333333371    0.333333333333371 3.45237076773697e-16 -0.000323407906616544  0.00173845875368947
68 1 Cu    0.333333333333371    0.666666666666629    0.666666666666629 -0.00425505942168474  0.00474183820976913  0.00474183820976912
69 1 Cu    0.333333333333371    0.833333333333371    0.833333333333371  0.00953329987349737 -0.00707975952234503 -0.00707975952234498
70 1 Cu                  0.5    0.666666666666629    0.833333333333371 2.86229373536173e-16  0.00366619563673264 0.000517883816643681
71 1 Cu                  0.5    0.833333333333371    0.666666666666629 3.06070273292658e-16 0.000517883816643639  0.00366619563673249
72 1 Cu    0.666666666666629                    0                    0 -0.00946994977142995   0.0113544369219861   0.0113544369219861
73 1 Cu    0.666666666666629    0.166666666666629    0.166666666666629  -0.0516098966638394  -0.0129441512592619  -0.0129441512592619
74 1 Cu    0.833333333333371                    0    0.166666666666629   0.0595148325882034   0.0367471692378383  -0.0249523094730461
75 1 Cu    0.833333333333371    0.166666666666629                    0   0.0595148325882033  -0.0249523094730459   0.0367471692378383
76 1 Cu    0.666666666666629                    0    0.333333333333371 -0.000532216935400703 -0.00201688789981181 -0.00377194747952597
77 1 Cu    0.666666666666629    0.166666666666629                  0.5  0.00833689099457966  0.00119505842659148 -0.00563439184817534
78 1 Cu    0.833333333333371                    0                  0.5   0.0026483733911888 -0.00096321891724094   0.0162316946018723
79 1 Cu    0.833333333333371    0.166666666666629    0.333333333333371    0.069787675729458  -0.0190039782075222  -0.0836354606789713
80 1 Cu    0.666666666666629                    0    0.666666666666629  0.00712109461644882 -0.00470291441088176   0.0047026829992361
81 1 Cu    0.666666666666629    0.166666666666629    0.833333333333371  0.00964026780823052 0.000688537780832023   0.0101575376728992
82 1 Cu    0.833333333333371                    0    0.833333333333371   0.0741167582078247    0.008672646519067   0.0731699798021294
83 1 Cu    0.833333333333371    0.166666666666629    0.666666666666629  0.00713837210675359 0.000874398589468252  -0.0101738996237839
84 1 Cu    0.666666666666629    0.333333333333371                    0 -0.000532216935400655 -0.00377194747952612  -0.0020168878998118
85 1 Cu    0.666666666666629                  0.5    0.166666666666629  0.00833689099457967 -0.00563439184817521   0.0011950584265915
86 1 Cu    0.833333333333371    0.333333333333371    0.166666666666629    0.069787675729458  -0.0836354606789713  -0.0190039782075222
87 1 Cu    0.833333333333371                  0.5                    0  0.00264837339118877   0.0162316946018723 -0.000963218917240931
88 1 Cu    0.666666666666629    0.333333333333371    0.333333333333371 -0.00798478606099466   0.0032034984329889   0.0032034984329889
89 1 Cu    0.666666666666629                  0.5                  0.5  0.00302684199074709 -0.00379382853779848 -0.00379382853779851
90 1 Cu    0.833333333333371    0.333333333333371                  0.5 2.35920283040494e-05 -0.000435439628651826   0.0060352584016129
91 1 Cu    0.833333333333371                  0.5    0.333333333333371 2.35920283040945e-05  0.00603525840161293 -0.000435439628651857
92 1 Cu    0.666666666666629    0.333333333333371    0.666666666666629  0.00178074960975923 -4.19376820078548e-05 -0.00137636382338854
93 1 Cu    0.666666666666629                  0.5    0.833333333333371  0.00391788067302008  0.00152493456998231  0.00265913408874181
94 1 Cu    0.833333333333371    0.333333333333371    0.833333333333371  0.00595861352782564  -0.0110651031485525  0.00418821173235738
95 1 Cu    0.833333333333371                  0.5    0.666666666666629 -0.000961261132164111  0.00133888226567894  0.00110967090955287
96 1 Cu    0.666666666666629    0.666666666666629                    0  0.00712109461644891  0.00470268299923617 -0.00470291441088171
97 1 Cu    0.666666666666629    0.833333333333371    0.166666666666629  0.00964026780823055    0.010157537672899  0.00068853778083193
98 1 Cu    0.833333333333371    0.666666666666629    0.166666666666629  0.00713837210675368  -0.0101738996237839 0.000874398589468247
99 1 Cu    0.833333333333371    0.833333333333371                    0   0.0741167582078247   0.0731699798021292  0.00867264651906696
100 1 Cu    0.666666666666629    0.666666666666629    0.333333333333371  0.00178074960975927 -0.00137636382338856 -4.19376820078067e-05
101 1 Cu    0.666666666666629    0.833333333333371                  0.5  0.00391788067301991  0.00265913408874174  0.00152493456998221
102 1 Cu    0.833333333333371    0.666666666666629                  0.5 -0.000961261132164153  0.00110967090955289  0.00133888226567886
103 1 Cu    0.833333333333371    0.833333333333371    0.333333333333371  0.00595861352782556  0.00418821173235734  -0.0110651031485525
104 1 Cu    0.666666666666629    0.666666666666629    0.666666666666629  0.00425505942168439  0.00474183820976925  0.00474183820976924
105 1 Cu    0.666666666666629    0.833333333333371    0.833333333333371 -0.00953329987349782  -0.0070797595223451 -0.00707975952234493
106 1 Cu    0.833333333333371    0.666666666666629    0.833333333333371 -0.00770614895569752  -0.0125440270099146 -0.00532335987349733
107 1 Cu    0.833333333333371    0.833333333333371    0.666666666666629 -0.00770614895569752 -0.00532335987349747  -0.0125440270099147
 -3.92047505570758e-16
