ITEM: TIMESTEP
92
ITEM: NUMBER OF ATOMS
215
ITEM: BOX BOUNDS xy xz yz pp pp pp
0.0000000000000000e+00 3.0674292160000000e+01 7.6685730400000001e+00
0.0000000000000000e+00 1.7709810839999999e+01 7.6685730400000001e+00
0.0000000000000000e+00 1.2522727339999999e+01 4.4274527099999998e+00
ITEM: ATOMS id type x y z
1 1 7.66857 4.42745 12.5227
2 1 1.28371 0.741148 2.09628
3 1 2.56459 1.48067 4.18797
4 1 3.83429 2.21373 6.26136
5 1 5.10398 2.94678 8.33476
6 1 6.38487 3.6863 10.4264
7 1 8.95228 6.6509 12.5227
8 1 17.9004 2.9632 2.0953
9 1 3.84957 3.68497 4.1724
10 1 5.12284 4.4201 6.25165
11 1 21.7211 5.16912 8.33458
12 1 7.66857 5.90975 10.4264
13 1 2.56459 4.44201 1.41574e-11
14 1 3.84957 5.16211 2.08343
15 1 5.13107 5.89248 4.16661
16 1 6.40208 6.6358 6.25165
17 1 7.66857 7.38879 8.33476
18 1 8.95317 8.12885 10.4274
19 1 11.5029 11.0686 12.5227
20 1 5.12284 7.36748 2.08343
21 1 6.40208 8.10605 4.1724
22 1 7.66857 8.85491 6.26136
23 1 24.2722 9.60376 8.35032
24 1 25.5514 10.3423 10.4393
25 1 12.7726 13.2678 12.5227
26 1 21.7211 9.58096 2.0953
27 1 7.66857 10.321 4.18797
28 1 24.2722 11.074 6.27107
29 1 25.5432 11.8173 8.35612
30 1 26.8247 12.5477 10.4393
31 1 6.38487 11.0589 1.40951e-12
32 1 7.66857 11.8001 2.09628
33 1 8.95317 12.5407 4.18815
34 1 25.5514 13.2897 6.27107
35 1 26.8247 14.0248 8.35032
36 1 12.7739 14.7466 10.4274
37 1 10.236 4.42745 12.5227
38 1 11.5164 14.0206 2.0953
39 1 5.11607 1.49134 4.1724
40 1 6.38934 2.22646 6.25165
41 1 15.3371 16.2265 8.33458
42 1 8.95228 3.6863 10.4264
43 1 11.5164 6.64899 12.5203
44 1 5.11913 2.95553 2.08988
45 1 6.39425 3.69172 4.17117
46 1 7.66857 4.42745 6.2531
47 1 8.95317 5.16912 8.33458
48 1 10.2424 5.91346 10.4212
49 1 5.11607 4.43089 0.0152445
50 1 6.39425 5.16319 2.0902
51 1 7.66857 5.89892 4.17117
52 1 8.93507 6.6358 6.25165
53 1 10.2207 7.38884 8.3347
54 1 11.5093 8.13279 10.4389
55 1 6.38934 6.63627 0.0152445
56 1 7.66857 7.3713 2.08988
57 1 8.93507 8.10605 4.1724
58 1 10.1602 8.85491 6.26136
59 1 11.4649 9.60739 8.36658
60 1 12.7487 10.3494 10.4883
61 1 15.3371 13.2667 12.5203
62 1 8.95317 9.58096 2.0953
63 1 10.2207 10.321 4.18803
64 1 11.4649 11.0906 6.26907
65 1 12.7493 11.8321 8.36658
66 1 14.0486 12.531 10.4389
67 1 16.6209 15.4864 12.5227
68 1 10.2424 11.7963 2.10154
69 1 11.5093 12.5528 4.18803
70 1 12.7487 13.3383 6.26136
71 1 14.0486 14.0189 8.3347
72 1 15.3371 14.7378 10.4212
73 1 12.7978 4.42745 12.5227
74 1 6.3953 0.752771 2.08343
75 1 7.66857 1.4974 4.16661
76 1 8.94781 2.22646 6.25165
77 1 10.2332 2.94678 8.33476
78 1 11.5164 3.68925 10.4274
79 1 6.3953 2.2152 0.0152445
80 1 7.66857 2.95599 2.0902
81 1 8.9429 3.69172 4.17117
82 1 10.2143 4.4201 6.25165
83 1 11.5093 5.15699 8.3347
84 1 12.7978 5.90094 10.4389
85 1 7.66857 4.42745 0.0228903
86 1 8.9429 5.16319 2.0902
87 1 10.2061 5.89248 4.16661
88 1 11.4649 6.61926 6.25365
89 1 12.748 7.36003 8.37543
90 1 14.0527 8.11332 10.4795
91 1 8.94781 6.63627 0.0152445
92 1 10.2143 7.36748 2.08343
93 1 11.4649 8.10242 4.15614
94 1 12.5459 8.85491 6.26136
95 1 13.9415 9.66066 8.54038
96 1 15.3371 10.3381 10.4795
97 1 17.9017 13.2678 12.5227
98 1 11.5093 9.57702 2.08383
99 1 12.748 10.3498 4.1473
100 1 13.9415 11.2722 6.26136
101 1 15.3371 11.8446 8.37543
102 1 16.6257 12.531 10.4389
103 1 11.5164 11.0608 0.00244611
104 1 12.7978 11.8089 2.08383
105 1 14.0527 12.5846 4.15614
106 1 15.3371 13.3262 6.25365
107 1 16.6257 14.0189 8.3347
108 1 17.9004 14.7466 10.4274
109 1 7.66857 2.52842e-09 1.16022e-11
110 1 8.94185 0.752771 2.08343
111 1 10.2211 1.49134 4.1724
112 1 11.5029 2.21373 6.26136
113 1 20.4532 16.2185 8.35032
114 1 21.7324 16.957 10.4393
115 1 8.94185 2.2152 0.0152445
116 1 10.218 2.95553 2.08988
117 1 11.4876 3.68497 4.1724
118 1 12.7487 4.37155 6.26136
119 1 14.0527 5.12519 8.36658
120 1 15.3371 5.866 10.4883
121 1 10.2211 4.43089 0.0152445
122 1 11.4876 5.16211 2.08343
123 1 12.7493 5.87767 4.15614
124 1 13.9415 6.43764 6.26136
125 1 15.3371 7.2434 8.54038
126 1 16.6216 8.11332 10.4795
127 1 19.1714 11.0686 12.5227
128 1 12.7487 7.36045 2.03442
129 1 13.9415 8.04915 3.98235
130 1 16.7328 9.66066 8.54038
131 1 17.9256 10.3494 10.4883
132 1 20.4532 13.2789 12.5075
133 1 14.0527 9.59649 2.04321
134 1 15.3371 10.4664 3.98235
135 1 16.7328 11.2722 6.26136
136 1 17.9249 11.8321 8.36658
137 1 19.1867 12.5477 10.4393
138 1 21.7324 15.4946 12.5075
139 1 15.3371 11.8438 2.03442
140 1 16.6216 12.5846 4.15614
141 1 17.9256 13.3383 6.26136
142 1 19.1867 14.0248 8.35032
143 1 20.4563 14.7543 10.4329
144 1 10.208 2.55495e-09 3.03886e-11
145 1 19.1579 14.0206 2.0953
146 1 12.7726 1.48067 4.18797
147 1 21.7265 15.4833 6.27107
148 1 23.0057 16.2124 8.35612
149 1 24.279 16.957 10.4393
150 1 19.1579 6.64899 12.5203
151 1 12.7739 2.9632 2.0953
152 1 14.0486 3.69093 4.18803
153 1 15.3371 4.38361 6.26907
154 1 16.6216 5.12519 8.36658
155 1 17.8764 5.90094 10.4389
156 1 12.7726 4.44201 4.11357e-11
157 1 14.0486 5.17882 2.08383
158 1 15.3371 5.86516 4.1473
159 1 16.7328 6.43764 6.26136
160 1 17.9263 7.36003 8.37543
161 1 19.165 8.13279 10.4389
162 1 21.7265 11.0735 12.5075
163 1 15.3371 7.37174 2.04321
164 1 16.7328 8.04915 3.98235
165 1 18.1284 8.85491 6.26136
166 1 19.2094 9.60739 8.36658
167 1 20.46 10.3423 10.4393
168 1 23.0057 13.2824 12.4998
169 1 16.6216 9.59649 2.04321
170 1 17.9263 10.3498 4.1473
171 1 19.2094 11.0906 6.26907
172 1 20.4682 11.8173 8.35612
173 1 21.7314 12.5466 10.4325
174 1 24.279 15.4946 12.5075
175 1 17.8764 11.8089 2.08383
176 1 19.165 12.5528 4.18803
177 1 20.46 13.2897 6.27107
178 1 21.7314 14.0181 8.35156
179 1 23.0057 14.7538 10.4325
180 1 12.7697 2.53954e-09 2.00593e-11
181 1 14.0534 0.741148 2.09628
182 1 15.3371 1.48333 4.18815
183 1 24.285 15.4833 6.27107
184 1 25.5582 16.2185 8.35032
185 1 19.1579 3.68925 10.4274
186 1 14.0534 2.22344 1.02309e-11
187 1 15.3371 2.97202 2.10154
188 1 16.6257 3.69093 4.18803
189 1 17.9256 4.37155 6.26136
190 1 19.165 5.15699 8.3347
191 1 20.4319 5.91346 10.4212
192 1 15.3371 4.44307 0.00244611
193 1 16.6257 5.17882 2.08383
194 1 17.9249 5.87767 4.15614
195 1 19.2094 6.61926 6.25365
196 1 20.4536 7.38884 8.3347
197 1 21.7211 8.12885 10.4274
198 1 24.285 11.0735 12.5075
199 1 17.9256 7.36045 2.03442
200 1 19.2094 8.10242 4.15614
201 1 20.5141 8.85491 6.26136
202 1 21.7392 9.60376 8.35032
203 1 23.0057 10.3385 10.4329
204 1 25.5582 13.2789 12.5075
205 1 19.165 9.57702 2.08383
206 1 20.4536 10.321 4.18803
207 1 21.7392 11.074 6.27107
208 1 23.0057 11.8109 8.35156
209 1 24.28 12.5466 10.4325
210 1 19.1579 11.0608 0.00244611
211 1 20.4319 11.7963 2.10154
212 1 21.7211 12.5407 4.18815
213 1 23.0057 13.2824 6.26963
214 1 24.28 14.0181 8.35156
215 1 25.5552 14.7543 10.4329
