ITEM: TIMESTEP
0
ITEM: NUMBER OF ATOMS
107
ITEM: BOX BOUNDS pp pp pp
0.0000000000000000e+00 1.0845000000000001e+01
0.0000000000000000e+00 1.0845000000000001e+01
0.0000000000000000e+00 1.0845000000000001e+01
ITEM: ATOMS id type x y z
1 1 0 0.225938 0.225938
2 1 1.8075 0 1.8075
3 1 1.8075 1.8075 0
4 1 0 0 3.615
5 1 0 1.8075 5.4225
6 1 1.8075 0 5.4225
7 1 1.8075 1.8075 3.615
8 1 0 0 7.23
9 1 0 1.8075 9.0375
10 1 1.8075 0 9.0375
11 1 1.8075 1.8075 7.23
12 1 0 3.615 0
13 1 0 5.4225 1.8075
14 1 1.8075 3.615 1.8075
15 1 1.8075 5.4225 0
16 1 0 3.615 3.615
17 1 0 5.4225 5.4225
18 1 1.8075 3.615 5.4225
19 1 1.8075 5.4225 3.615
20 1 0 3.615 7.23
21 1 0 5.4225 9.0375
22 1 1.8075 3.615 9.0375
23 1 1.8075 5.4225 7.23
24 1 0 7.23 0
25 1 0 9.0375 1.8075
26 1 1.8075 7.23 1.8075
27 1 1.8075 9.0375 0
28 1 0 7.23 3.615
29 1 0 9.0375 5.4225
30 1 1.8075 7.23 5.4225
31 1 1.8075 9.0375 3.615
32 1 0 7.23 7.23
33 1 0 9.0375 9.0375
34 1 1.8075 7.23 9.0375
35 1 1.8075 9.0375 7.23
36 1 3.615 0 0
37 1 3.615 1.8075 1.8075
38 1 5.4225 0 1.8075
39 1 5.4225 1.8075 0
40 1 3.615 0 3.615
41 1 3.615 1.8075 5.4225
42 1 5.4225 0 5.4225
43 1 5.4225 1.8075 3.615
44 1 3.615 0 7.23
45 1 3.615 1.8075 9.0375
46 1 5.4225 0 9.0375
47 1 5.4225 1.8075 7.23
48 1 3.615 3.615 0
49 1 3.615 5.4225 1.8075
50 1 5.4225 3.615 1.8075
51 1 5.4225 5.4225 0
52 1 3.615 3.615 3.615
53 1 3.615 5.4225 5.4225
54 1 5.4225 3.615 5.4225
55 1 5.4225 5.4225 3.615
56 1 3.615 3.615 7.23
57 1 3.615 5.4225 9.0375
58 1 5.4225 3.615 9.0375
59 1 5.4225 5.4225 7.23
60 1 3.615 7.23 0
61 1 3.615 9.0375 1.8075
62 1 5.4225 7.23 1.8075
63 1 5.4225 9.0375 0
64 1 3.615 7.23 3.615
65 1 3.615 9.0375 5.4225
66 1 5.4225 7.23 5.4225
67 1 5.4225 9.0375 3.615
68 1 3.615 7.23 7.23
69 1 3.615 9.0375 9.0375
70 1 5.4225 7.23 9.0375
71 1 5.4225 9.0375 7.23
72 1 7.23 0 0
73 1 7.23 1.8075 1.8075
74 1 9.0375 0 1.8075
75 1 9.0375 1.8075 0
76 1 7.23 0 3.615
77 1 7.23 1.8075 5.4225
78 1 9.0375 0 5.4225
79 1 9.0375 1.8075 3.615
80 1 7.23 0 7.23
81 1 7.23 1.8075 9.0375
82 1 9.0375 0 9.0375
83 1 9.0375 1.8075 7.23
84 1 7.23 3.615 0
85 1 7.23 5.4225 1.8075
86 1 9.0375 3.615 1.8075
87 1 9.0375 5.4225 0
88 1 7.23 3.615 3.615
89 1 7.23 5.4225 5.4225
90 1 9.0375 3.615 5.4225
91 1 9.0375 5.4225 3.615
92 1 7.23 3.615 7.23
93 1 7.23 5.4225 9.0375
94 1 9.0375 3.615 9.0375
95 1 9.0375 5.4225 7.23
96 1 7.23 7.23 0
97 1 7.23 9.0375 1.8075
98 1 9.0375 7.23 1.8075
99 1 9.0375 9.0375 0
100 1 7.23 7.23 3.615
101 1 7.23 9.0375 5.4225
102 1 9.0375 7.23 5.4225
103 1 9.0375 9.0375 3.615
104 1 7.23 7.23 7.23
105 1 7.23 9.0375 9.0375
106 1 9.0375 7.23 9.0375
107 1 9.0375 9.0375 7.23
