ITEM: TIMESTEP
91
ITEM: NUMBER OF ATOMS
215
ITEM: BOX BOUNDS xy xz yz pp pp pp
0.0000000000000000e+00 3.0674292160000000e+01 7.6685730400000001e+00
0.0000000000000000e+00 1.7709810839999999e+01 7.6685730400000001e+00
0.0000000000000000e+00 1.2522727339999999e+01 4.4274527099999998e+00
ITEM: ATOMS id type x y z
1 1 -0.00117189 -0.000676592 -0.0019137
2 1 1.27927 0.738585 2.08903
3 1 25.5633 14.759 4.17658
4 1 19.1726 2.21439 6.26325
5 1 5.11123 2.95097 8.3466
6 1 21.7262 3.68872 10.4333
7 1 1.29237 2.22751 -0.0136166
8 1 17.9072 2.963 2.08225
9 1 19.179 3.69066 4.179
10 1 5.1158 4.41902 6.26225
11 1 21.7272 5.16187 8.34023
12 1 23.0133 5.91103 10.4206
13 1 17.9042 4.45166 -0.00572149
14 1 19.1894 5.1728 2.09073
15 1 5.13575 5.88855 4.17117
16 1 21.7461 6.62361 6.25025
17 1 7.67249 7.37839 8.32907
18 1 24.287 8.13672 10.4172
19 1 19.1567 6.65441 0.00633244
20 1 5.12714 7.36586 2.08079
21 1 21.7572 8.09135 4.1652
22 1 7.68494 8.84261 6.25766
23 1 8.9303 9.60511 8.35219
24 1 10.1952 10.3564 10.4446
25 1 5.09437 8.84747 -0.00360407
26 1 21.7167 9.56861 2.09284
27 1 23.0026 10.311 4.19265
28 1 8.94275 11.0693 6.28078
29 1 10.2063 11.8241 8.3596
30 1 26.8166 12.5592 10.4387
31 1 21.7138 11.0573 0.00487207
32 1 7.6543 11.7928 2.10074
33 1 24.2762 12.5367 4.18929
34 1 10.2252 13.2858 6.26962
35 1 26.8366 14.0287 8.3476
36 1 12.7734 14.7571 10.4309
37 1 2.57527 0.00547208 -0.0136166
38 1 3.85106 0.744231 2.08225
39 1 12.7857 14.7641 4.179
40 1 6.38489 2.2209 6.26225
41 1 7.66533 2.953 8.34023
42 1 8.95721 3.69227 10.4206
43 1 3.8659 2.23198 -0.0157797
44 1 5.1304 2.96204 2.09368
45 1 6.39191 3.69037 4.18295
46 1 7.66194 4.42362 6.2569
47 1 8.94732 5.16574 8.32668
48 1 10.2482 5.91679 10.4065
49 1 5.11793 4.44743 0.0223336
50 1 6.40207 5.16731 2.10764
51 1 7.67782 5.89468 4.17161
52 1 8.93516 6.62978 6.24414
53 1 10.2035 7.38361 8.32709
54 1 11.4922 8.13814 10.4346
55 1 6.36487 6.65314 0.0427965
56 1 7.67622 7.37085 2.09647
57 1 8.94524 8.10352 4.16877
58 1 10.1736 8.85209 6.26237
59 1 11.4129 9.60467 8.37064
60 1 12.7145 10.3561 10.496
61 1 7.65656 8.84712 0.00533416
62 1 8.94754 9.57933 2.09136
63 1 10.2166 10.3252 4.18594
64 1 11.4826 11.0765 6.27649
65 1 12.7392 11.8297 8.3659
66 1 14.0343 12.5497 10.4434
67 1 8.94821 11.058 -0.00563126
68 1 10.2332 11.7999 2.09275
69 1 11.5021 12.5525 4.17897
70 1 12.7787 13.297 6.26894
71 1 14.0475 14.0295 8.34091
72 1 15.3306 14.7629 10.4309
73 1 5.1388 -0.0026568 -0.00572149
74 1 6.40593 0.749792 2.09073
75 1 15.3361 14.7858 4.17117
76 1 8.94068 2.23848 6.25025
77 1 10.2261 2.95538 8.32907
78 1 11.5215 3.6824 10.4172
79 1 6.41056 2.20855 0.0223336
80 1 7.67605 2.96071 2.10764
81 1 8.94386 3.70185 4.17161
82 1 10.2091 4.42318 6.24414
83 1 11.4962 5.14472 8.32709
84 1 12.7939 5.88349 10.4346
85 1 7.6596 4.42227 0.0439827
86 1 8.95428 5.16976 2.10098
87 1 10.216 5.8982 4.16133
88 1 11.464 6.61872 6.25647
89 1 12.7091 7.33762 8.3801
90 1 14.0093 8.08827 10.5033
91 1 8.94062 6.6473 0.0250738
92 1 10.2214 7.375 2.09061
93 1 11.4776 8.11202 4.16794
94 1 12.581 8.84758 6.30665
95 1 13.8449 9.62703 8.46751
96 1 15.2023 10.361 10.5872
97 1 10.2333 8.84441 0.00306784
98 1 11.5077 9.58015 2.08405
99 1 12.7468 10.3506 4.14646
100 1 14.0355 11.1607 6.29758
101 1 15.2692 11.873 8.31227
102 1 16.6151 12.5839 10.4634
103 1 11.5141 11.0611 -0.00423713
104 1 12.7937 11.8131 2.08179
105 1 14.0668 12.5685 4.16648
106 1 15.338 13.3301 6.24395
107 1 16.6185 14.0417 8.33336
108 1 17.9022 14.7624 10.4239
109 1 7.67265 -0.0193927 0.00633244
110 1 8.94259 0.757302 2.08079
111 1 17.8859 14.7966 4.1652
112 1 11.5004 2.23405 6.25766
113 1 12.7834 2.93131 8.35219
114 1 14.0665 3.65111 10.4446
115 1 8.94422 2.18557 0.0427965
116 1 10.2215 2.96237 2.09647
117 1 11.4905 3.69504 4.16877
118 1 12.7529 4.38452 6.26237
119 1 14.0244 5.08156 8.37064
120 1 15.3259 5.83301 10.496
121 1 10.227 4.41915 0.0250738
122 1 11.4976 5.16452 2.09061
123 1 12.764 5.88388 4.16794
124 1 13.9528 6.47172 6.30665
125 1 15.2597 7.17655 8.46751
126 1 16.574 7.98512 10.5872
127 1 11.5254 6.65419 0.0367974
128 1 12.7584 7.36608 2.05032
129 1 13.9407 8.04868 3.98102
130 1 15.9762 9.22386 7.30492
131 1 18.0117 10.399 10.6288
132 1 12.7862 8.85575 -0.00349053
133 1 14.0568 9.60111 2.06205
134 1 15.3783 10.4626 4.02266
135 1 16.6927 11.2712 6.14234
136 1 17.9996 11.976 8.3032
137 1 19.1884 12.5638 10.4419
138 1 14.0624 11.0579 -0.00934472
139 1 15.3396 11.8347 2.04432
140 1 16.6265 12.6147 4.1138
141 1 17.928 13.3662 6.23921
142 1 19.1995 14.0632 8.34748
143 1 20.4619 14.7527 10.4411
144 1 10.2093 -0.0118832 -0.00360407
145 1 11.4764 0.740566 2.09284
146 1 20.4309 14.7653 4.19265
147 1 14.0577 2.20998 6.28078
148 1 15.3431 2.92688 8.3596
149 1 16.6163 3.66194 10.4387
150 1 11.4901 2.20721 0.00533416
151 1 12.7697 2.95913 2.09136
152 1 14.0502 3.68528 4.18594
153 1 15.3339 4.40597 6.27649
154 1 16.6144 5.11758 8.3659
155 1 17.8855 5.87919 10.4434
156 1 12.7761 4.44012 0.00306784
157 1 14.0505 5.17586 2.08405
158 1 15.3373 5.86377 4.14646
159 1 16.6832 6.57476 6.29758
160 1 17.9169 7.28706 8.31227
161 1 19.2056 8.09715 10.4634
162 1 14.0624 6.64527 -0.00349053
163 1 15.3432 7.37297 2.06205
164 1 16.7501 8.08674 4.02266
165 1 18.1075 8.82069 6.14234
166 1 19.3713 9.60014 8.3032
167 1 20.4748 10.3357 10.4419
168 1 15.3295 8.85051 -0.0138548
169 1 16.6242 9.59799 2.04314
170 1 17.9431 10.3594 4.1066
171 1 19.2432 11.1101 6.22975
172 1 20.4884 11.829 8.35338
173 1 21.7364 12.5495 10.4485
174 1 16.6078 11.0596 -0.0205141
175 1 17.8733 11.8117 2.06479
176 1 19.1584 12.5642 4.1752
177 1 20.4562 13.303 6.28276
178 1 21.7433 14.0245 8.36571
179 1 23.0085 14.7459 10.4382
180 1 12.7642 -0.00632175 0.00487207
181 1 14.04 0.732437 2.10074
182 1 22.9952 14.7555 4.18929
183 1 16.6185 2.21236 6.26962
184 1 17.8989 2.94446 8.3476
185 1 19.1667 3.68358 10.4309
186 1 14.0506 2.22038 -0.00563126
187 1 15.3356 2.96227 2.09275
188 1 16.6218 3.68486 4.17897
189 1 17.9049 4.41818 6.26894
190 1 19.1737 5.15073 8.34091
191 1 20.4503 5.89524 10.4309
192 1 15.3363 4.44094 -0.00423713
193 1 16.6273 5.17315 2.08179
194 1 17.9181 5.89798 4.16648
195 1 19.2132 6.61802 6.24395
196 1 20.4698 7.37119 8.33336
197 1 21.7357 8.12253 10.4239
198 1 16.6076 6.64942 -0.00934472
199 1 17.9189 7.36713 2.04432
200 1 19.2379 8.0916 4.1138
201 1 20.5394 8.84305 6.23921
202 1 21.7788 9.59563 8.34748
203 1 23.0071 10.3442 10.4411
204 1 17.8817 8.85296 -0.0205141
205 1 19.1659 9.57284 2.06479
206 1 20.4602 10.3096 4.1752
207 1 21.7489 11.0641 6.28276
208 1 23.0172 11.8179 8.36571
209 1 24.2746 12.553 10.4382
210 1 19.1534 11.0582 -0.0065625
211 1 20.4179 11.7883 2.1029
212 1 21.7042 12.5309 4.2034
213 1 23.0051 13.282 6.28317
214 1 24.2904 14.0241 8.35295
215 1 25.5605 14.7573 10.4269
4.7543 10.4329
