ITEM: TIMESTEP
300
ITEM: NUMBER OF ATOMS
107
ITEM: BOX BOUNDS pp pp pp
0.0000000000000000e+00 1.0845000000000001e+01
0.0000000000000000e+00 1.0845000000000001e+01
0.0000000000000000e+00 1.0845000000000001e+01
ITEM: ATOMS id type x y z
1 1 -4.88092e-16 1.46797 1.46797
2 1 1.86004 -1.97848e-06 1.69278
3 1 1.86004 1.69278 -1.97848e-06
4 1 8.20101e-16 -5.47508e-06 3.60157
5 1 -8.18941e-16 1.80263 5.4225
6 1 1.80577 -4.98881e-06 5.4225
7 1 1.75777 1.76382 3.55001
8 1 -5.17173e-16 -7.14181e-06 7.24342
9 1 -6.16928e-16 1.4679 9.37706
10 1 1.86011 -3.09678e-06 9.15219
11 1 1.75776 1.76381 7.29499
12 1 -6.37406e-16 3.60157 -5.47508e-06
13 1 -4.3783e-16 5.4225 1.80263
14 1 1.75777 3.55001 1.76382
15 1 1.80577 5.4225 -4.98881e-06
16 1 -8.57947e-16 3.5327 3.5327
17 1 1.89874e-15 5.42251 5.42251
18 1 1.79114 3.5892 5.42251
19 1 1.79114 5.42251 3.5892
20 1 8.12518e-16 3.53268 7.31231
21 1 3.67253e-16 5.4225 9.04237
22 1 1.75776 3.55 9.08119
23 1 1.79113 5.4225 7.25581
24 1 1.60562e-16 7.24342 -7.14181e-06
25 1 -6.44893e-16 9.37706 1.4679
26 1 1.75776 7.29499 1.76381
27 1 1.86011 9.15219 -3.09678e-06
28 1 1.83494e-18 7.31231 3.53268
29 1 6.36918e-17 9.04237 5.4225
30 1 1.79113 7.25581 5.4225
31 1 1.75776 9.08119 3.55
32 1 1.17729e-15 7.31233 7.31233
33 1 -5.60992e-16 9.37713 9.37713
34 1 1.75776 7.295 9.08119
35 1 1.75776 9.08119 7.295
36 1 3.64584 3.72612e-06 3.72612e-06
37 1 3.61888 1.79813 1.79813
38 1 5.4225 -2.98203e-07 1.79419
39 1 5.4225 1.79419 -2.98203e-07
40 1 3.6014 -1.21655e-06 3.59214
41 1 3.6064 1.7999 5.4225
42 1 5.4225 -1.0615e-06 5.4225
43 1 5.4225 1.79854 3.60666
44 1 3.6014 -1.23223e-06 7.25284
45 1 3.61888 1.79813 9.04687
46 1 5.4225 -6.0358e-07 9.0508
47 1 5.4225 1.79854 7.23834
48 1 3.6014 3.59214 -1.21655e-06
49 1 3.6064 5.4225 1.7999
50 1 5.4225 3.60666 1.79854
51 1 5.4225 5.4225 -1.0615e-06
52 1 3.60592 3.59977 3.59977
53 1 3.60337 5.4225 5.4225
54 1 5.4225 3.61116 5.4225
55 1 5.4225 5.4225 3.61116
56 1 3.60592 3.59977 7.24523
57 1 3.6064 5.4225 9.0451
58 1 5.4225 3.60665 9.04647
59 1 5.4225 5.4225 7.23384
60 1 3.6014 7.25284 -1.23223e-06
61 1 3.61888 9.04687 1.79813
62 1 5.4225 7.23834 1.79854
63 1 5.4225 9.0508 -6.0358e-07
64 1 3.60592 7.24523 3.59977
65 1 3.6064 9.0451 5.4225
66 1 5.4225 7.23384 5.4225
67 1 5.4225 9.04647 3.60665
68 1 3.60592 7.24523 7.24523
69 1 3.61888 9.04687 9.04687
70 1 5.4225 7.23834 9.04646
71 1 5.4225 9.04646 7.23834
72 1 7.19916 3.72612e-06 3.72612e-06
73 1 7.22612 1.79813 1.79813
74 1 8.98496 -1.97848e-06 1.69278
75 1 8.98496 1.69278 -1.97848e-06
76 1 7.2436 -1.21655e-06 3.59214
77 1 7.2386 1.7999 5.4225
78 1 9.03923 -4.98881e-06 5.4225
79 1 9.08723 1.76382 3.55001
80 1 7.2436 -1.23223e-06 7.25284
81 1 7.22612 1.79813 9.04687
82 1 8.98489 -3.09678e-06 9.15219
83 1 9.08724 1.76381 7.29499
84 1 7.2436 3.59214 -1.21655e-06
85 1 7.2386 5.4225 1.7999
86 1 9.08723 3.55001 1.76382
87 1 9.03923 5.4225 -4.98881e-06
88 1 7.23908 3.59977 3.59977
89 1 7.24163 5.4225 5.4225
90 1 9.05386 3.5892 5.42251
91 1 9.05386 5.42251 3.5892
92 1 7.23908 3.59977 7.24523
93 1 7.2386 5.4225 9.0451
94 1 9.08724 3.55 9.08119
95 1 9.05387 5.4225 7.25581
96 1 7.2436 7.25284 -1.23223e-06
97 1 7.22612 9.04687 1.79813
98 1 9.08724 7.29499 1.76381
99 1 8.98489 9.15219 -3.09678e-06
100 1 7.23908 7.24523 3.59977
101 1 7.2386 9.0451 5.4225
102 1 9.05387 7.25581 5.4225
103 1 9.08724 9.08119 3.55
104 1 7.23908 7.24523 7.24523
105 1 7.22612 9.04687 9.04687
106 1 9.08724 7.295 9.08119
107 1 9.08724 9.08119 7.295
6
