ITEM: TIMESTEP
251
ITEM: NUMBER OF ATOMS
107
ITEM: BOX BOUNDS pp pp pp
0.0000000000000000e+00 1.0845000000000001e+01
0.0000000000000000e+00 1.0845000000000001e+01
0.0000000000000000e+00 1.0845000000000001e+01
ITEM: ATOMS id type x y z
1 1 -2.68058e-15 1.17073 1.17073
2 1 1.95278 -0.0258052 1.75355
3 1 1.95278 1.75355 -0.0258052
4 1 1.86566e-15 -0.0031434 3.57668
5 1 2.15434e-15 1.80495 5.4061
6 1 1.79699 0.00558929 5.4182
7 1 1.70019 1.75057 3.4897
8 1 3.96893e-16 0.00661877 7.25153
9 1 4.73021e-16 1.5509 9.32403
10 1 1.82408 0.0229011 9.15953
11 1 1.7609 1.78017 7.26035
12 1 -1.96614e-15 3.57668 -0.0031434
13 1 -1.53291e-15 5.4061 1.80495
14 1 1.70019 3.4897 1.75057
15 1 1.79699 5.4182 0.00558929
16 1 1.17981e-15 3.49604 3.49604
17 1 -1.37396e-15 5.39507 5.39507
18 1 1.7969 3.5752 5.39144
19 1 1.7969 5.39144 3.5752
20 1 3.12662e-15 3.55957 7.27323
21 1 8.65963e-16 5.42623 9.03112
22 1 1.76758 3.58866 9.04328
23 1 1.80259 5.42424 7.23215
24 1 2.80266e-16 7.25153 0.00661877
25 1 -1.3334e-15 9.32403 1.5509
26 1 1.7609 7.26035 1.78017
27 1 1.82408 9.15953 0.0229011
28 1 -2.27432e-15 7.27323 3.55957
29 1 -1.33112e-15 9.03112 5.42623
30 1 1.80259 7.23215 5.42424
31 1 1.76758 9.04328 3.58866
32 1 -2.90054e-16 7.28741 7.28741
33 1 -2.04066e-15 9.36327 9.36327
34 1 1.75622 7.28273 9.07032
35 1 1.75622 9.07032 7.28273
36 1 3.61425 -0.00944882 -0.00944882
37 1 3.61369 1.80881 1.80881
38 1 5.4225 -0.0100626 1.79361
39 1 5.4225 1.79361 -0.0100626
40 1 3.60883 -0.00345494 3.61951
41 1 3.61303 1.80111 5.39662
42 1 5.4225 -0.000164749 5.41929
43 1 5.4225 1.79394 3.589
44 1 3.60515 -0.00174593 7.24853
45 1 3.61576 1.81341 9.00831
46 1 5.4225 0.00264336 9.05914
47 1 5.4225 1.79774 7.22955
48 1 3.60883 3.61951 -0.00345494
49 1 3.61303 5.39662 1.80111
50 1 5.4225 3.589 1.79394
51 1 5.4225 5.41929 -0.000164749
52 1 3.61054 3.58375 3.58375
53 1 3.60233 5.41257 5.41257
54 1 5.4225 3.61163 5.41533
55 1 5.4225 5.41533 3.61163
56 1 3.61399 3.60725 7.22252
57 1 3.61925 5.4271 9.0327
58 1 5.4225 3.61222 9.02863
59 1 5.4225 5.42343 7.21655
60 1 3.60515 7.24853 -0.00174593
61 1 3.61576 9.00831 1.81341
62 1 5.4225 7.22955 1.79774
63 1 5.4225 9.05914 0.00264336
64 1 3.61399 7.22252 3.60725
65 1 3.61925 9.0327 5.4271
66 1 5.4225 7.21655 5.42343
67 1 5.4225 9.02863 3.61222
68 1 3.61446 7.23724 7.23724
69 1 3.618 9.03909 9.03909
70 1 5.4225 7.23274 9.04119
71 1 5.4225 9.04119 7.23274
72 1 7.23075 -0.00944882 -0.00944882
73 1 7.23131 1.80881 1.80881
74 1 8.89222 -0.0258052 1.75355
75 1 8.89222 1.75355 -0.0258052
76 1 7.23617 -0.00345494 3.61951
77 1 7.23197 1.80111 5.39662
78 1 9.04801 0.00558929 5.4182
79 1 9.14481 1.75057 3.4897
80 1 7.23985 -0.00174593 7.24853
81 1 7.22924 1.81341 9.00831
82 1 9.02092 0.0229011 9.15953
83 1 9.0841 1.78017 7.26035
84 1 7.23617 3.61951 -0.00345494
85 1 7.23197 5.39662 1.80111
86 1 9.14481 3.4897 1.75057
87 1 9.04801 5.4182 0.00558929
88 1 7.23446 3.58375 3.58375
89 1 7.24267 5.41257 5.41257
90 1 9.0481 3.5752 5.39144
91 1 9.0481 5.39144 3.5752
92 1 7.23101 3.60725 7.22252
93 1 7.22575 5.4271 9.0327
94 1 9.07742 3.58866 9.04328
95 1 9.04241 5.42424 7.23215
96 1 7.23985 7.24853 -0.00174593
97 1 7.22924 9.00831 1.81341
98 1 9.0841 7.26035 1.78017
99 1 9.02092 9.15953 0.0229011
100 1 7.23101 7.22252 3.60725
101 1 7.22575 9.0327 5.4271
102 1 9.04241 7.23215 5.42424
103 1 9.07742 9.04328 3.58866
104 1 7.23054 7.23724 7.23724
105 1 7.227 9.03909 9.03909
106 1 9.08878 7.28273 9.07032
107 1 9.08878 9.07032 7.28273
7.27667
75
