ITEM: TIMESTEP
87
ITEM: NUMBER OF ATOMS
107
ITEM: BOX BOUNDS pp pp pp
0.0000000000000000e+00 1.0845000000000001e+01
0.0000000000000000e+00 1.0845000000000001e+01
0.0000000000000000e+00 1.0845000000000001e+01
ITEM: ATOMS id type x y z
1 1 2.72489e-16 1.74827 1.74827
2 1 2.00044 10.7918 1.94103
3 1 2.00044 1.94103 10.7918
4 1 2.16379e-16 10.8098 3.66695
5 1 8.61144e-17 1.81906 5.45039
6 1 1.83719 10.8376 5.43449
7 1 1.84843 1.79258 3.6325
8 1 9.35101e-17 10.8366 7.18037
9 1 5.33539e-16 1.97195 8.90195
10 1 2.01062 10.8385 8.86803
11 1 1.83732 1.82791 7.2125
12 1 7.13195e-16 3.66695 10.8098
13 1 7.15271e-16 5.45039 1.81906
14 1 1.84843 3.6325 1.79258
15 1 1.83719 5.43449 10.8376
16 1 7.96996e-17 3.63213 3.63213
17 1 -3.95089e-19 5.41214 5.41214
18 1 1.81734 3.62368 5.42323
19 1 1.81734 5.42323 3.62368
20 1 2.4608e-16 3.66226 7.20077
21 1 2.19805e-16 5.43242 9.01023
22 1 1.84065 3.66162 9.00917
23 1 1.81948 5.42243 7.20837
24 1 5.86165e-16 7.18037 10.8366
25 1 5.93633e-16 8.90195 1.97195
26 1 1.83732 7.2125 1.82791
27 1 2.01062 8.86803 10.8385
28 1 3.32745e-16 7.20077 3.66226
29 1 2.31106e-16 9.01023 5.43242
30 1 1.81948 7.20837 5.42243
31 1 1.84065 9.00917 3.66162
32 1 -1.84375e-19 7.17055 7.17055
33 1 1.49317e-16 8.8465 8.8465
34 1 1.83517 7.18871 9.00718
35 1 1.83517 9.00718 7.18871
36 1 3.71838 10.8252 10.8252
37 1 3.68032 1.81804 1.81804
38 1 5.4225 10.8248 1.83735
39 1 5.4225 1.83735 10.8248
40 1 3.67894 10.8281 3.67349
41 1 3.63409 1.82119 5.42836
42 1 5.4225 10.8331 5.42763
43 1 5.4225 1.82144 3.64665
44 1 3.67601 10.8353 7.16985
45 1 3.68472 1.83176 8.98674
46 1 5.4225 10.8318 8.98465
47 1 5.4225 1.8289 7.19186
48 1 3.67894 3.67349 10.8281
49 1 3.63409 5.42836 1.82119
50 1 5.4225 3.64665 1.82144
51 1 5.4225 5.42763 10.8331
52 1 3.63074 3.62857 3.62857
53 1 3.61491 5.42337 5.42337
54 1 5.4225 3.63284 5.42555
55 1 5.4225 5.42555 3.63284
56 1 3.63004 3.63898 7.20892
57 1 3.63585 5.42852 9.00733
58 1 5.4225 3.65173 8.99906
59 1 5.4225 5.42728 7.21015
60 1 3.67601 7.16985 10.8353
61 1 3.68472 8.98674 1.83176
62 1 5.4225 7.19186 1.8289
63 1 5.4225 8.98465 10.8318
64 1 3.63004 7.20892 3.63898
65 1 3.63585 9.00733 5.42852
66 1 5.4225 7.21015 5.42728
67 1 5.4225 8.99906 3.65173
68 1 3.62521 7.20687 7.20687
69 1 3.66921 8.9985 8.9985
70 1 5.4225 7.19851 9.00276
71 1 5.4225 9.00276 7.19851
72 1 7.12662 10.8252 10.8252
73 1 7.16468 1.81804 1.81804
74 1 8.84456 10.7918 1.94103
75 1 8.84456 1.94103 10.7918
76 1 7.16606 10.8281 3.67349
77 1 7.21091 1.82119 5.42836
78 1 9.00781 10.8376 5.43449
79 1 8.99657 1.79258 3.6325
80 1 7.16899 10.8353 7.16985
81 1 7.16028 1.83176 8.98674
82 1 8.83438 10.8385 8.86803
83 1 9.00768 1.82791 7.2125
84 1 7.16606 3.67349 10.8281
85 1 7.21091 5.42836 1.82119
86 1 8.99657 3.6325 1.79258
87 1 9.00781 5.43449 10.8376
88 1 7.21426 3.62857 3.62857
89 1 7.23009 5.42337 5.42337
90 1 9.02766 3.62368 5.42323
91 1 9.02766 5.42323 3.62368
92 1 7.21496 3.63898 7.20892
93 1 7.20915 5.42852 9.00733
94 1 9.00435 3.66162 9.00917
95 1 9.02552 5.42243 7.20837
96 1 7.16899 7.16985 10.8353
97 1 7.16028 8.98674 1.83176
98 1 9.00768 7.2125 1.82791
99 1 8.83438 8.86803 10.8385
100 1 7.21496 7.20892 3.63898
101 1 7.20915 9.00733 5.42852
102 1 9.02552 7.20837 5.42243
103 1 9.00435 9.00917 3.66162
104 1 7.21979 7.20687 7.20687
105 1 7.17579 8.9985 8.9985
106 1 9.00983 7.18871 9.00718
107 1 9.00983 9.00718 7.18871
