ITEM: TIMESTEP
306
ITEM: NUMBER OF ATOMS
107
ITEM: BOX BOUNDS pp pp pp
0.0000000000000000e+00 1.0845000000000001e+01
0.0000000000000000e+00 1.0845000000000001e+01
0.0000000000000000e+00 1.0845000000000001e+01
ITEM: ATOMS id type x y z
1 1 -6.16123e-19 0.339642 0.339642
2 1 1.86015 0.114711 1.8075
3 1 1.86015 1.8075 0.114711
4 1 10.845 0.339707 3.27533
5 1 -1.05357e-19 1.80751 5.40904
6 1 1.75775 0.0437076 5.35748
7 1 1.8602 1.8075 3.50031
8 1 -2.56808e-19 0.00488859 7.23
9 1 -1.57526e-20 1.80751 9.05097
10 1 1.75775 0.0437021 9.10252
11 1 1.80576 1.8075 7.23
12 1 2.04129e-19 3.27533 0.339707
13 1 10.845 5.40904 1.80751
14 1 1.8602 3.50031 1.8075
15 1 1.75775 5.35748 0.0437076
16 1 10.845 3.27527 3.27527
17 1 10.845 5.34014 5.34014
18 1 1.75774 3.57129 5.35747
19 1 1.75774 5.35747 3.57129
20 1 1.54384e-16 3.61011 7.23
21 1 5.34182e-16 5.34016 9.11985
22 1 1.75775 3.5713 9.10253
23 1 1.79112 5.39667 7.23
24 1 -3.35825e-19 7.23 0.00488859
25 1 -2.23884e-19 9.05097 1.80751
26 1 1.80576 7.23 1.8075
27 1 1.75775 9.10252 0.0437021
28 1 10.845 7.23 3.61011
29 1 10.845 9.11985 5.34016
30 1 1.79112 7.23 5.39667
31 1 1.75775 9.10253 3.5713
32 1 2.22121e-17 7.22999 7.22999
33 1 -1.7779e-19 9.11983 9.11983
34 1 1.79112 7.23 9.06332
35 1 1.79112 9.06332 7.23
36 1 3.6189 0.00936416 0.00936416
37 1 3.64584 1.8075 1.8075
38 1 5.4225 0.0133193 1.8075
39 1 5.4225 1.8075 0.0133193
40 1 3.6189 0.00935957 3.60564
41 1 3.60142 1.8075 5.39967
42 1 5.4225 0.00896365 5.41416
43 1 5.4225 1.8075 3.60169
44 1 3.60639 0.00759721 7.23
45 1 3.60141 1.8075 9.06035
46 1 5.4225 0.0089646 9.04584
47 1 5.4225 1.8075 7.23
48 1 3.6189 3.60564 0.00935957
49 1 3.60142 5.39967 1.8075
50 1 5.4225 3.60169 1.8075
51 1 5.4225 5.41416 0.00896365
52 1 3.6189 3.60564 3.60564
53 1 3.60591 5.40726 5.40726
54 1 5.4225 3.60604 5.41416
55 1 5.4225 5.41416 3.60604
56 1 3.60639 3.6074 7.23
57 1 3.60591 5.40726 9.05274
58 1 5.4225 3.60603 9.04584
59 1 5.4225 5.41866 7.23
60 1 3.60639 7.23 0.00759721
61 1 3.60141 9.06035 1.8075
62 1 5.4225 7.23 1.8075
63 1 5.4225 9.04584 0.0089646
64 1 3.60639 7.23 3.6074
65 1 3.60591 9.05274 5.40726
66 1 5.4225 7.23 5.41866
67 1 5.4225 9.04584 3.60603
68 1 3.60335 7.23 7.23
69 1 3.60591 9.05273 9.05273
70 1 5.4225 7.23 9.04134
71 1 5.4225 9.04134 7.23
72 1 7.2261 0.00936416 0.00936416
73 1 7.19916 1.8075 1.8075
74 1 8.98485 0.114711 1.8075
75 1 8.98485 1.8075 0.114711
76 1 7.2261 0.00935957 3.60564
77 1 7.24358 1.8075 5.39967
78 1 9.08725 0.0437076 5.35748
79 1 8.9848 1.8075 3.50031
80 1 7.23861 0.00759721 7.23
81 1 7.24359 1.8075 9.06035
82 1 9.08725 0.0437021 9.10252
83 1 9.03924 1.8075 7.23
84 1 7.2261 3.60564 0.00935957
85 1 7.24358 5.39967 1.8075
86 1 8.9848 3.50031 1.8075
87 1 9.08725 5.35748 0.0437076
88 1 7.2261 3.60564 3.60564
89 1 7.23909 5.40726 5.40726
90 1 9.08726 3.57129 5.35747
91 1 9.08726 5.35747 3.57129
92 1 7.23861 3.6074 7.23
93 1 7.23909 5.40726 9.05274
94 1 9.08725 3.5713 9.10253
95 1 9.05388 5.39667 7.23
96 1 7.23861 7.23 0.00759721
97 1 7.24359 9.06035 1.8075
98 1 9.03924 7.23 1.8075
99 1 9.08725 9.10252 0.0437021
100 1 7.23861 7.23 3.6074
101 1 7.23909 9.05274 5.40726
102 1 9.05388 7.23 5.39667
103 1 9.08725 9.10253 3.5713
104 1 7.24165 7.23 7.23
105 1 7.23909 9.05273 9.05273
106 1 9.05388 7.23 9.06332
107 1 9.05388 9.06332 7.23
1 9.08726 9.08121 7.29503
 9.06539 3.58661
104 1 7.23758 7.23758 7.23758
105 1 7.25839 9.06539 9.06539
106 1 9.06539 7.25839 9.06539
107 1 9.06539 9.06539 7.25839
