ITEM: TIMESTEP
90
ITEM: NUMBER OF ATOMS
215
ITEM: BOX BOUNDS xy xz yz pp pp pp
0.0000000000000000e+00 3.0674292160000000e+01 7.6685730400000001e+00
0.0000000000000000e+00 1.7709810839999999e+01 7.6685730400000001e+00
0.0000000000000000e+00 1.2522727339999999e+01 4.4274527099999998e+00
ITEM: ATOMS id type x y z
1 1 -0.00105891 -0.00061136 -0.00172919
2 1 1.27858 0.738187 2.08791
3 1 25.5641 14.7595 4.17786
4 1 19.1718 2.21391 6.26189
5 1 5.10944 2.94994 8.34368
6 1 21.7264 3.68884 10.4336
7 1 1.29144 2.22582 -0.0118771
8 1 17.9032 2.96304 2.08569
9 1 19.1783 3.68852 4.17801
10 1 5.11571 4.42007 6.26013
11 1 21.7244 5.16469 8.3394
12 1 23.0154 5.90961 10.4219
13 1 17.9029 4.45024 -0.00131962
14 1 19.187 5.16906 2.09121
15 1 5.13421 5.8893 4.1691
16 1 21.7418 6.62741 6.25095
17 1 7.66768 7.38223 8.33094
18 1 24.2908 8.13461 10.4214
19 1 19.165 6.649 0.000132105
20 1 5.13137 7.36328 2.07364
21 1 21.7525 8.0945 4.16678
22 1 7.67416 8.84659 6.25984
23 1 8.92161 9.60512 8.35205
24 1 10.1997 10.3531 10.4429
25 1 5.09941 8.84376 -0.00509163
26 1 21.7176 9.57343 2.09634
27 1 23.0064 10.3139 4.19236
28 1 8.94329 11.072 6.27718
29 1 10.2056 11.8221 8.35801
30 1 26.8204 12.5551 10.4372
31 1 21.7134 11.0597 0.00633393
32 1 7.65569 11.7947 2.09976
33 1 24.281 12.5371 4.18718
34 1 10.2241 13.287 6.26772
35 1 26.8352 14.0268 8.34731
36 1 12.775 14.7535 10.4296
37 1 2.57334 0.00551144 -0.0118771
38 1 3.84908 0.74073 2.08569
39 1 12.7835 14.7646 4.17801
40 1 6.38575 2.2203 6.26013
41 1 7.66637 2.94915 8.3394
42 1 8.95701 3.69478 10.4219
43 1 3.85832 2.2276 -0.0116422
44 1 5.124 2.95835 2.0953
45 1 6.39038 3.68949 4.17919
46 1 7.66168 4.42347 6.25412
47 1 8.9481 5.16619 8.32586
48 1 10.2479 5.91663 10.4073
49 1 5.11575 4.43947 0.0199608
50 1 6.40182 5.16516 2.09544
51 1 7.67518 5.89461 4.16833
52 1 8.93211 6.62993 6.2431
53 1 10.2029 7.38415 8.32642
54 1 11.4959 8.13671 10.4367
55 1 6.38636 6.64111 0.00903565
56 1 7.67685 7.37085 2.08743
57 1 8.94305 8.10365 4.16814
58 1 10.16 8.8511 6.26096
59 1 11.4268 9.6024 8.3689
60 1 12.7301 10.3505 10.4844
61 1 7.66081 8.85197 0.00553152
62 1 8.95041 9.58423 2.09702
63 1 10.2222 10.3235 4.1893
64 1 11.4832 11.0787 6.27658
65 1 12.7453 11.8245 8.36761
66 1 14.0421 12.5421 10.4393
67 1 8.94797 11.0654 -0.00070044
68 1 10.2355 11.8003 2.09587
69 1 11.507 12.5495 4.18283
70 1 12.77 13.3096 6.26718
71 1 14.0516 14.0211 8.33996
72 1 15.3326 14.7586 10.4303
73 1 5.13691 -0.00310411 -0.00131962
74 1 6.40147 0.749542 2.09121
75 1 15.336 14.7841 4.1691
76 1 8.94184 2.23289 6.25095
77 1 10.227 2.94929 8.33094
78 1 11.5216 3.68674 10.4214
79 1 6.40257 2.21063 0.0199608
80 1 7.67407 2.96156 2.09544
81 1 8.94247 3.6996 4.16833
82 1 10.2077 4.42047 6.2431
83 1 11.4963 5.14387 8.32642
84 1 12.7946 5.88741 10.4367
85 1 7.66683 4.42644 0.0164169
86 1 8.95271 5.16885 2.08629
87 1 10.2125 5.89622 4.15823
88 1 11.4556 6.61389 6.25188
89 1 12.7098 7.33799 8.37679
90 1 14.0255 8.09763 10.478
91 1 8.94343 6.64234 0.000483627
92 1 10.2198 7.37362 2.08018
93 1 11.4698 8.10604 4.15985
94 1 12.5465 8.84086 6.28462
95 1 13.888 9.62666 8.48728
96 1 15.2912 10.3255 10.4501
97 1 10.2302 8.85238 0.00491517
98 1 11.51 9.58292 2.08892
99 1 12.7564 10.3471 4.15569
100 1 13.9891 11.2198 6.28263
101 1 15.3122 11.8354 8.33835
102 1 16.6128 12.5652 10.4473
103 1 11.5159 11.0654 0.00230837
104 1 12.7974 11.8103 2.08662
105 1 14.0656 12.5697 4.16802
106 1 15.3424 13.3239 6.24712
107 1 16.6197 14.0302 8.33481
108 1 17.8995 14.7633 10.4297
109 1 7.67213 -0.00948793 0.000132105
110 1 8.94247 0.762259 2.07364
111 1 17.8863 14.791 4.16678
112 1 11.4985 2.22272 6.25984
113 1 12.7791 2.92378 8.35205
114 1 14.0659 3.65664 10.4429
115 1 8.94455 2.2102 0.00903565
116 1 10.2218 2.96292 2.08743
117 1 11.4895 3.69308 4.16814
118 1 12.7453 4.37323 6.26096
119 1 14.0293 5.09467 8.3689
120 1 15.3288 5.84935 10.4844
121 1 10.2242 4.42407 0.000483627
122 1 11.4956 5.16379 2.08018
123 1 12.7549 5.88014 4.15985
124 1 13.9297 6.44515 6.28462
125 1 15.2809 7.214 8.48728
126 1 16.5878 8.07983 10.4501
127 1 11.4967 6.63762 -0.0100675
128 1 12.749 7.36066 2.03501
129 1 13.9377 8.04693 3.97606
130 1 16.4935 9.52253 8.14968
131 1 17.9057 10.3379 10.4558
132 1 12.7784 8.85085 -0.00894987
133 1 14.0536 9.5978 2.05018
134 1 15.3642 10.4677 3.98393
135 1 16.709 11.2554 6.18389
136 1 17.9081 11.8364 8.31334
137 1 19.1712 12.5473 10.4337
138 1 14.0618 11.0589 -0.0112818
139 1 15.339 11.8412 2.03228
140 1 16.6264 12.6044 4.12344
141 1 17.9217 13.3479 6.24542
142 1 19.1789 14.0269 8.3481
143 1 20.4545 14.7481 10.4386
144 1 10.2086 -0.00566156 -0.00509163
145 1 11.4811 0.738937 2.09634
146 1 20.4353 14.7672 4.19236
147 1 14.0603 2.20913 6.27718
148 1 15.341 2.92729 8.35801
149 1 16.6147 3.66727 10.4372
150 1 11.4964 2.20847 0.00553152
151 1 12.7754 2.95917 2.09702
152 1 14.0515 3.69094 4.1893
153 1 15.3361 4.40536 6.27658
154 1 16.613 5.12552 8.36761
155 1 17.8828 5.88982 10.4393
156 1 12.7815 4.43346 0.00491517
157 1 14.0541 5.17653 2.08892
158 1 15.339 5.8738 4.15569
159 1 16.7112 6.50506 6.28263
160 1 17.9058 7.3431 8.33835
161 1 19.1881 8.10453 10.4473
162 1 14.0543 6.64103 -0.00894987
163 1 15.3388 7.3719 2.05018
164 1 16.7474 8.07197 3.98393
165 1 18.102 8.84274 6.18389
166 1 19.2047 9.59071 8.31334
167 1 20.4519 10.329 10.4337
168 1 15.3281 8.84971 -0.0186401
169 1 16.6233 9.59744 2.0325
170 1 17.9402 10.3578 4.10618
171 1 19.2172 11.0951 6.23897
172 1 20.4635 11.8146 8.35205
173 1 21.7249 12.5429 10.4419
174 1 16.6068 11.0609 -0.0232734
175 1 17.8724 11.8122 2.06427
176 1 19.1609 12.5621 4.17823
177 1 20.4589 13.2978 6.27643
178 1 21.7345 14.0175 8.36043
179 1 23.0059 14.7458 10.4349
180 1 12.7661 -0.00784822 0.00633393
181 1 14.0424 0.732667 2.09976
182 1 22.998 14.7594 4.18718
183 1 16.6189 2.21087 6.26772
184 1 17.8966 2.94421 8.34731
185 1 19.1644 3.6867 10.4296
186 1 14.0569 2.21647 -0.00070044
187 1 15.3371 2.96409 2.09587
188 1 16.6217 3.69056 4.18283
189 1 17.9114 4.40435 6.26718
190 1 19.1684 5.15849 8.33996
191 1 20.4476 5.89909 10.4303
192 1 15.3409 4.44036 0.00230837
193 1 16.6267 5.17776 2.08662
194 1 17.9185 5.89633 4.16802
195 1 19.2101 6.62493 6.24712
196 1 20.4603 7.37794 8.33481
197 1 21.7352 8.11981 10.4297
198 1 16.6082 6.64838 -0.0112818
199 1 17.9243 7.36336 2.03228
200 1 19.2289 8.09666 4.12344
201 1 20.5205 8.84675 6.24542
202 1 21.737 9.59595 8.3481
203 1 22.9995 10.3401 10.4386
204 1 17.8825 8.85147 -0.0232734
205 1 19.1658 9.57187 2.06427
206 1 20.4596 10.3128 4.17823
207 1 21.7457 11.069 6.27643
208 1 23.0068 11.8139 8.36043
209 1 24.2732 12.5508 10.4349
210 1 19.1525 11.0577 -0.0059862
211 1 20.4187 11.7888 2.1029
212 1 21.7101 12.5343 4.19653
213 1 23.0085 13.284 6.27674
214 1 24.2879 14.0226 8.35003
215 1 25.5583 14.7561 10.4257
7544 10.4329
