ITEM: TIMESTEP
305
ITEM: NUMBER OF ATOMS
107
ITEM: BOX BOUNDS pp pp pp
0.0000000000000000e+00 1.0845000000000001e+01
0.0000000000000000e+00 1.0845000000000001e+01
0.0000000000000000e+00 1.0845000000000001e+01
ITEM: ATOMS id type x y z
1 1 -5.67191e-16 1.46786 1.46786
2 1 1.86015 -1.8436e-06 1.69279
3 1 1.86015 1.69279 -1.8436e-06
4 1 4.77578e-16 -5.0743e-06 3.60153
5 1 -5.92713e-16 1.80261 5.4225
6 1 1.80576 -4.43379e-06 5.4225
7 1 1.75775 1.7638 3.54998
8 1 -6.54472e-16 -6.33678e-06 7.24346
9 1 -6.49498e-16 1.46779 9.37717
10 1 1.8602 -2.7746e-06 9.15219
11 1 1.75775 1.76379 7.29502
12 1 -4.76354e-16 3.60153 -5.0743e-06
13 1 -3.46175e-17 5.4225 1.80261
14 1 1.75775 3.54998 1.7638
15 1 1.80576 5.4225 -4.43379e-06
16 1 -4.80038e-16 3.53267 3.53267
17 1 1.77115e-15 5.42251 5.42251
18 1 1.79112 3.58918 5.4225
19 1 1.79112 5.4225 3.58918
20 1 3.26776e-16 3.53265 7.31234
21 1 6.042e-16 5.4225 9.04239
22 1 1.75775 3.54997 9.0812
23 1 1.79112 5.4225 7.25583
24 1 2.32386e-16 7.24346 -6.33678e-06
25 1 -6.32462e-16 9.37717 1.46779
26 1 1.75775 7.29502 1.76379
27 1 1.8602 9.15219 -2.7746e-06
28 1 3.20949e-16 7.31234 3.53265
29 1 4.76595e-17 9.04239 5.4225
30 1 1.79112 7.25583 5.4225
31 1 1.75775 9.0812 3.54997
32 1 1.41272e-16 7.31236 7.31236
33 1 -5.78004e-16 9.37723 9.37723
34 1 1.75774 7.29503 9.08121
35 1 1.75774 9.08121 7.29503
36 1 3.64584 3.16987e-06 3.16987e-06
37 1 3.6189 1.79814 1.79814
38 1 5.4225 -3.60641e-07 1.79418
39 1 5.4225 1.79418 -3.60641e-07
40 1 3.60141 -1.05969e-06 3.59215
41 1 3.60639 1.7999 5.4225
42 1 5.4225 -9.97572e-07 5.4225
43 1 5.4225 1.79854 3.60666
44 1 3.60142 -1.10201e-06 7.25283
45 1 3.6189 1.79814 9.04686
46 1 5.4225 -6.64953e-07 9.05081
47 1 5.4225 1.79854 7.23834
48 1 3.60141 3.59215 -1.05969e-06
49 1 3.60639 5.4225 1.7999
50 1 5.4225 3.60666 1.79854
51 1 5.4225 5.4225 -9.97572e-07
52 1 3.60591 3.59977 3.59977
53 1 3.60335 5.4225 5.4225
54 1 5.4225 3.61116 5.4225
55 1 5.4225 5.4225 3.61116
56 1 3.60591 3.59976 7.24524
57 1 3.60639 5.4225 9.0451
58 1 5.4225 3.60666 9.04647
59 1 5.4225 5.4225 7.23384
60 1 3.60142 7.25283 -1.10201e-06
61 1 3.6189 9.04686 1.79814
62 1 5.4225 7.23834 1.79854
63 1 5.4225 9.05081 -6.64953e-07
64 1 3.60591 7.24524 3.59976
65 1 3.60639 9.0451 5.4225
66 1 5.4225 7.23384 5.4225
67 1 5.4225 9.04647 3.60666
68 1 3.60591 7.24524 7.24524
69 1 3.6189 9.04686 9.04686
70 1 5.4225 7.23834 9.04646
71 1 5.4225 9.04646 7.23834
72 1 7.19916 3.16987e-06 3.16987e-06
73 1 7.2261 1.79814 1.79814
74 1 8.98485 -1.8436e-06 1.69279
75 1 8.98485 1.69279 -1.8436e-06
76 1 7.24359 -1.05969e-06 3.59215
77 1 7.23861 1.7999 5.4225
78 1 9.03924 -4.43379e-06 5.4225
79 1 9.08725 1.7638 3.54998
80 1 7.24358 -1.10201e-06 7.25283
81 1 7.2261 1.79814 9.04686
82 1 8.9848 -2.7746e-06 9.15219
83 1 9.08725 1.76379 7.29502
84 1 7.24359 3.59215 -1.05969e-06
85 1 7.23861 5.4225 1.7999
86 1 9.08725 3.54998 1.7638
87 1 9.03924 5.4225 -4.43379e-06
88 1 7.23909 3.59977 3.59977
89 1 7.24165 5.4225 5.4225
90 1 9.05388 3.58918 5.4225
91 1 9.05388 5.4225 3.58918
92 1 7.23909 3.59976 7.24524
93 1 7.23861 5.4225 9.0451
94 1 9.08725 3.54997 9.0812
95 1 9.05388 5.4225 7.25583
96 1 7.24358 7.25283 -1.10201e-06
97 1 7.2261 9.04686 1.79814
98 1 9.08725 7.29502 1.76379
99 1 8.9848 9.15219 -2.7746e-06
100 1 7.23909 7.24524 3.59976
101 1 7.23861 9.0451 5.4225
102 1 9.05388 7.25583 5.4225
103 1 9.08725 9.0812 3.54997
104 1 7.23909 7.24524 7.24524
105 1 7.2261 9.04686 9.04686
106 1 9.08726 7.29503 9.08121
107 1 9.08726 9.08121 7.29503
