ITEM: TIMESTEP
0
ITEM: NUMBER OF ATOMS
107
ITEM: BOX BOUNDS pp pp pp
0.0000000000000000e+00 1.0845000000000001e+01
0.0000000000000000e+00 1.0845000000000001e+01
0.0000000000000000e+00 1.0845000000000001e+01
ITEM: ATOMS id type element x y z fx fy fz c_energy
1 1 Cu 0 0.677812 0.677812 1.05471e-15 1.63064e-16 2.39392e-16 -3.51269
2 1 Cu 1.8075 0 1.8075 -0.0940337 0.0466411 -0.0497465 -3.47916
3 1 Cu 1.8075 1.8075 0 -0.0940337 -0.0497465 0.0466411 -3.47916
4 1 Cu 0 0 3.615 -3.88578e-16 0.0549444 -0.0238219 -3.51561
5 1 Cu 0 1.8075 5.4225 -5.68989e-16 -0.00293151 0.0979139 -3.51795
6 1 Cu 1.8075 0 5.4225 -0.00355183 -0.00177091 0.0190301 -3.53952
7 1 Cu 1.8075 1.8075 3.615 -0.0851313 -0.0257996 -0.103139 -3.50372
8 1 Cu 0 0 7.23 -3.95517e-16 0.00858101 -0.0790508 -3.51759
9 1 Cu 0 1.8075 9.0375 -2.60209e-16 -0.0348011 -0.051656 -3.52281
10 1 Cu 1.8075 0 9.0375 -0.0939187 0.0196992 0.103309 -3.5298
11 1 Cu 1.8075 1.8075 7.23 -0.0061986 0.00154366 -0.0148697 -3.53784
12 1 Cu 0 3.615 0 -4.16334e-16 -0.0238219 0.0549444 -3.51561
13 1 Cu 0 5.4225 1.8075 -4.64906e-16 0.0979139 -0.00293151 -3.51795
14 1 Cu 1.8075 3.615 1.8075 -0.0851313 -0.103139 -0.0257996 -3.50372
15 1 Cu 1.8075 5.4225 0 -0.00355183 0.0190301 -0.00177091 -3.53952
16 1 Cu 0 3.615 3.615 -5.16948e-16 -0.0704117 -0.0704117 -3.48625
17 1 Cu 0 5.4225 5.4225 -5.48173e-16 -0.00904289 -0.00904289 -3.53857
18 1 Cu 1.8075 3.615 5.4225 0.00140731 0.000337937 0.00740167 -3.54024
19 1 Cu 1.8075 5.4225 3.615 0.00140731 0.00740167 0.000337937 -3.54024
20 1 Cu 0 3.615 7.23 -4.75314e-16 -0.011628 -0.000880015 -3.53797
21 1 Cu 0 5.4225 9.0375 -2.91434e-16 0.00135312 0.0112931 -3.53857
22 1 Cu 1.8075 3.615 9.0375 -0.00755393 -0.0120769 0.00790495 -3.54205
23 1 Cu 1.8075 5.4225 7.23 0.000966323 0.000925017 0.000769618 -3.53621
24 1 Cu 0 7.23 0 -3.81639e-16 -0.0790508 0.00858101 -3.51759
25 1 Cu 0 9.0375 1.8075 -2.91434e-16 -0.051656 -0.0348011 -3.52281
26 1 Cu 1.8075 7.23 1.8075 -0.0061986 -0.0148697 0.00154366 -3.53784
27 1 Cu 1.8075 9.0375 0 -0.0939187 0.103309 0.0196992 -3.5298
28 1 Cu 0 7.23 3.615 -5.27356e-16 -0.000880015 -0.011628 -3.53797
29 1 Cu 0 9.0375 5.4225 -2.84495e-16 0.0112931 0.00135312 -3.53857
30 1 Cu 1.8075 7.23 5.4225 0.000966323 0.000769618 0.000925017 -3.53621
31 1 Cu 1.8075 9.0375 3.615 -0.00755393 0.00790495 -0.0120769 -3.54205
32 1 Cu 0 7.23 7.23 -3.81639e-16 0.00881865 0.00881865 -3.53828
33 1 Cu 0 9.0375 9.0375 -1.66533e-16 0.113048 0.113048 -3.50826
34 1 Cu 1.8075 7.23 9.0375 0.00594134 -0.0113879 -0.00401281 -3.53915
35 1 Cu 1.8075 9.0375 7.23 0.00594134 -0.00401281 -0.0113879 -3.53915
36 1 Cu 3.615 0 0 0.017635 0.0150587 0.0150587 -3.5349
37 1 Cu 3.615 1.8075 1.8075 0.0389588 -0.0163355 -0.0163355 -3.52746
38 1 Cu 5.4225 0 1.8075 1.70437e-16 0.00301686 -0.00174072 -3.53717
39 1 Cu 5.4225 1.8075 0 2.09902e-16 -0.00174072 0.00301686 -3.53717
40 1 Cu 3.615 0 3.615 -0.00234432 -0.00281891 -0.00608293 -3.53861
41 1 Cu 3.615 1.8075 5.4225 -0.00787194 0.00231877 -0.00493859 -3.53831
42 1 Cu 5.4225 0 5.4225 2.06432e-16 -0.00026883 7.83836e-05 -3.53621
43 1 Cu 5.4225 1.8075 3.615 1.92663e-16 0.00451658 -0.00292206 -3.53714
44 1 Cu 3.615 0 7.23 -0.0078012 -0.00444098 0.00513972 -3.53791
45 1 Cu 3.615 1.8075 9.0375 -0.00796259 0.0018259 0.00959486 -3.53836
46 1 Cu 5.4225 0 9.0375 2.23779e-16 -0.00586139 0.00142869 -3.53677
47 1 Cu 5.4225 1.8075 7.23 3.13551e-16 -0.00066929 0.000248069 -3.53621
48 1 Cu 3.615 3.615 0 -0.00234432 -0.00608293 -0.00281891 -3.53861
49 1 Cu 3.615 5.4225 1.8075 -0.00787194 -0.00493859 0.00231877 -3.53831
50 1 Cu 5.4225 3.615 1.8075 2.25839e-16 -0.00292206 0.00451658 -3.53714
51 1 Cu 5.4225 5.4225 0 1.84748e-16 7.83836e-05 -0.00026883 -3.53621
52 1 Cu 3.615 3.615 3.615 0.00961312 0.00489965 0.00489965 -3.53999
53 1 Cu 3.615 5.4225 5.4225 -0.00360861 -0.00452823 -0.00452823 -3.53637
54 1 Cu 5.4225 3.615 5.4225 1.73906e-16 0.000519547 -0.00357096 -3.53621
55 1 Cu 5.4225 5.4225 3.615 2.15106e-16 -0.00357096 0.000519547 -3.53621
56 1 Cu 3.615 3.615 7.23 -0.00247556 -0.000911981 -0.00181129 -3.53625
57 1 Cu 3.615 5.4225 9.0375 -0.00380494 0.00214495 0.00225374 -3.53631
58 1 Cu 5.4225 3.615 9.0375 3.26507e-16 0.00150366 -0.00082362 -3.53616
59 1 Cu 5.4225 5.4225 7.23 3.06612e-16 0.000292062 -0.000287795 -3.53617
60 1 Cu 3.615 7.23 0 -0.0078012 0.00513972 -0.00444098 -3.53791
61 1 Cu 3.615 9.0375 1.8075 -0.00796259 0.00959486 0.0018259 -3.53836
62 1 Cu 5.4225 7.23 1.8075 3.11383e-16 0.000248069 -0.00066929 -3.53621
63 1 Cu 5.4225 9.0375 0 2.25948e-16 0.00142869 -0.00586139 -3.53677
64 1 Cu 3.615 7.23 3.615 -0.00247556 -0.00181129 -0.000911981 -3.53625
65 1 Cu 3.615 9.0375 5.4225 -0.00380494 0.00225374 0.00214495 -3.53631
66 1 Cu 5.4225 7.23 5.4225 2.64545e-16 -0.000287795 0.000292062 -3.53617
67 1 Cu 5.4225 9.0375 3.615 3.56946e-16 -0.00082362 0.00150366 -3.53616
68 1 Cu 3.615 7.23 7.23 -0.0048255 0.00546294 0.00546294 -3.53637
69 1 Cu 3.615 9.0375 9.0375 0.0124554 -0.00873567 -0.00873567 -3.53807
70 1 Cu 5.4225 7.23 9.0375 3.70363e-16 0.00433379 0.00042603 -3.53621
71 1 Cu 5.4225 9.0375 7.23 3.37729e-16 0.00042603 0.00433379 -3.53621
72 1 Cu 7.23 0 0 -0.017635 0.0150587 0.0150587 -3.5349
73 1 Cu 7.23 1.8075 1.8075 -0.0389588 -0.0163355 -0.0163355 -3.52746
74 1 Cu 9.0375 0 1.8075 0.0940337 0.0466411 -0.0497465 -3.47916
75 1 Cu 9.0375 1.8075 0 0.0940337 -0.0497465 0.0466411 -3.47916
76 1 Cu 7.23 0 3.615 0.00234432 -0.00281891 -0.00608293 -3.53861
77 1 Cu 7.23 1.8075 5.4225 0.00787194 0.00231877 -0.00493859 -3.53831
78 1 Cu 9.0375 0 5.4225 0.00355183 -0.00177091 0.0190301 -3.53952
79 1 Cu 9.0375 1.8075 3.615 0.0851313 -0.0257996 -0.103139 -3.50372
80 1 Cu 7.23 0 7.23 0.0078012 -0.00444098 0.00513972 -3.53791
81 1 Cu 7.23 1.8075 9.0375 0.00796259 0.0018259 0.00959486 -3.53836
82 1 Cu 9.0375 0 9.0375 0.0939187 0.0196992 0.103309 -3.5298
83 1 Cu 9.0375 1.8075 7.23 0.0061986 0.00154366 -0.0148697 -3.53784
84 1 Cu 7.23 3.615 0 0.00234432 -0.00608293 -0.00281891 -3.53861
85 1 Cu 7.23 5.4225 1.8075 0.00787194 -0.00493859 0.00231877 -3.53831
86 1 Cu 9.0375 3.615 1.8075 0.0851313 -0.103139 -0.0257996 -3.50372
87 1 Cu 9.0375 5.4225 0 0.00355183 0.0190301 -0.00177091 -3.53952
88 1 Cu 7.23 3.615 3.615 -0.00961312 0.00489965 0.00489965 -3.53999
89 1 Cu 7.23 5.4225 5.4225 0.00360861 -0.00452823 -0.00452823 -3.53637
90 1 Cu 9.0375 3.615 5.4225 -0.00140731 0.000337937 0.00740167 -3.54024
91 1 Cu 9.0375 5.4225 3.615 -0.00140731 0.00740167 0.000337937 -3.54024
92 1 Cu 7.23 3.615 7.23 0.00247556 -0.000911981 -0.00181129 -3.53625
93 1 Cu 7.23 5.4225 9.0375 0.00380494 0.00214495 0.00225374 -3.53631
94 1 Cu 9.0375 3.615 9.0375 0.00755393 -0.0120769 0.00790495 -3.54205
95 1 Cu 9.0375 5.4225 7.23 -0.000966323 0.000925017 0.000769618 -3.53621
96 1 Cu 7.23 7.23 0 0.0078012 0.00513972 -0.00444098 -3.53791
97 1 Cu 7.23 9.0375 1.8075 0.00796259 0.00959486 0.0018259 -3.53836
98 1 Cu 9.0375 7.23 1.8075 0.0061986 -0.0148697 0.00154366 -3.53784
99 1 Cu 9.0375 9.0375 0 0.0939187 0.103309 0.0196992 -3.5298
100 1 Cu 7.23 7.23 3.615 0.00247556 -0.00181129 -0.000911981 -3.53625
101 1 Cu 7.23 9.0375 5.4225 0.00380494 0.00225374 0.00214495 -3.53631
102 1 Cu 9.0375 7.23 5.4225 -0.000966323 0.000769618 0.000925017 -3.53621
103 1 Cu 9.0375 9.0375 3.615 0.00755393 0.00790495 -0.0120769 -3.54205
104 1 Cu 7.23 7.23 7.23 0.0048255 0.00546294 0.00546294 -3.53637
105 1 Cu 7.23 9.0375 9.0375 -0.0124554 -0.00873567 -0.00873567 -3.53807
106 1 Cu 9.0375 7.23 9.0375 -0.00594134 -0.0113879 -0.00401281 -3.53915
107 1 Cu 9.0375 9.0375 7.23 -0.00594134 -0.00401281 -0.0113879 -3.53915
544 -3.53762
9.0375 7.23 -0.0066265 -0.00389919 -0.00911516 -3.53622
7.23 -0.00182396 0.00111758 -3.92048e-16 -3.53621
