ITEM: TIMESTEP
86
ITEM: NUMBER OF ATOMS
107
ITEM: BOX BOUNDS pp pp pp
0.0000000000000000e+00 1.0845000000000001e+01
0.0000000000000000e+00 1.0845000000000001e+01
0.0000000000000000e+00 1.0845000000000001e+01
ITEM: ATOMS id type x y z
1 1 1.39834e-16 1.19325 1.19325
2 1 2.01297 -0.0961211 1.92803
3 1 2.01297 1.92803 -0.0961211
4 1 -2.73784e-16 -0.0905426 3.6684
5 1 -6.49899e-16 1.82255 5.47707
6 1 1.84294 -0.0146875 5.43954
7 1 1.95644 1.78501 3.70792
8 1 -3.16589e-16 -0.0144667 7.17835
9 1 -6.20716e-17 1.94699 8.94711
10 1 2.00681 0.00652396 8.88296
11 1 1.84212 1.82544 7.21482
12 1 2.54257e-16 3.6684 -0.0905426
13 1 4.05313e-16 5.47707 1.82255
14 1 1.95644 3.70792 1.78501
15 1 1.84294 5.43954 -0.0146875
16 1 1.61898e-16 3.76958 3.76958
17 1 -2.55103e-16 5.45069 5.45069
18 1 1.8298 3.63331 5.44347
19 1 1.8298 5.44347 3.63331
20 1 -5.44014e-16 3.65881 7.2092
21 1 9.66309e-18 5.4381 8.99997
22 1 1.843 3.66321 8.99545
23 1 1.82266 5.43148 7.21622
24 1 1.54762e-16 7.17835 -0.0144667
25 1 1.88388e-16 8.94711 1.94699
26 1 1.84212 7.21482 1.82544
27 1 2.00681 8.88296 0.00652396
28 1 -1.55166e-16 7.2092 3.65881
29 1 -2.93612e-16 8.99997 5.4381
30 1 1.82266 7.21622 5.43148
31 1 1.843 8.99545 3.66321
32 1 -1.35027e-16 7.18404 7.18404
33 1 3.47298e-16 8.84513 8.84513
34 1 1.83441 7.19741 9.01179
35 1 1.83441 9.01179 7.19741
36 1 3.72333 -0.021145 -0.021145
37 1 3.71123 1.82276 1.82276
38 1 5.4225 -0.0285185 1.83692
39 1 5.4225 1.83692 -0.0285185
40 1 3.69408 -0.025007 3.68214
41 1 3.6578 1.81982 5.45244
42 1 5.4225 -0.0192788 5.44076
43 1 5.4225 1.81993 3.65949
44 1 3.67326 -0.0124758 7.17941
45 1 3.69513 1.83303 8.9716
46 1 5.4225 -0.0131596 8.98578
47 1 5.4225 1.82894 7.20062
48 1 3.69408 3.68214 -0.025007
49 1 3.6578 5.45244 1.81982
50 1 5.4225 3.65949 1.81993
51 1 5.4225 5.44076 -0.0192788
52 1 3.65515 3.64049 3.64049
53 1 3.62152 5.4352 5.4352
54 1 5.4225 3.64378 5.44108
55 1 5.4225 5.44108 3.64378
56 1 3.63552 3.64569 7.21469
57 1 3.63691 5.43427 9.00474
58 1 5.4225 3.65789 8.99307
59 1 5.4225 5.43467 7.21428
60 1 3.67326 7.17941 -0.0124758
61 1 3.69513 8.9716 1.83303
62 1 5.4225 7.20062 1.82894
63 1 5.4225 8.98578 -0.0131596
64 1 3.63552 7.21469 3.64569
65 1 3.63691 9.00474 5.43427
66 1 5.4225 7.21428 5.43467
67 1 5.4225 8.99307 3.65789
68 1 3.62366 7.21228 7.21228
69 1 3.6642 9.00489 9.00489
70 1 5.4225 7.20428 9.00391
71 1 5.4225 9.00391 7.20428
72 1 7.12167 -0.021145 -0.021145
73 1 7.13377 1.82276 1.82276
74 1 8.83203 -0.0961211 1.92803
75 1 8.83203 1.92803 -0.0961211
76 1 7.15092 -0.025007 3.68214
77 1 7.1872 1.81982 5.45244
78 1 9.00206 -0.0146875 5.43954
79 1 8.88856 1.78501 3.70792
80 1 7.17174 -0.0124758 7.17941
81 1 7.14987 1.83303 8.9716
82 1 8.83819 0.00652396 8.88296
83 1 9.00288 1.82544 7.21482
84 1 7.15092 3.68214 -0.025007
85 1 7.1872 5.45244 1.81982
86 1 8.88856 3.70792 1.78501
87 1 9.00206 5.43954 -0.0146875
88 1 7.18985 3.64049 3.64049
89 1 7.22348 5.4352 5.4352
90 1 9.0152 3.63331 5.44347
91 1 9.0152 5.44347 3.63331
92 1 7.20948 3.64569 7.21469
93 1 7.20809 5.43427 9.00474
94 1 9.002 3.66321 8.99545
95 1 9.02234 5.43148 7.21622
96 1 7.17174 7.17941 -0.0124758
97 1 7.14987 8.9716 1.83303
98 1 9.00288 7.21482 1.82544
99 1 8.83819 8.88296 0.00652396
100 1 7.20948 7.21469 3.64569
101 1 7.20809 9.00474 5.43427
102 1 9.02234 7.21622 5.43148
103 1 9.002 8.99545 3.66321
104 1 7.22134 7.21228 7.21228
105 1 7.1808 9.00489 9.00489
106 1 9.01059 7.19741 9.01179
107 1 9.01059 9.01179 7.19741
 9.00983 9.00718 7.18871
