ITEM: TIMESTEP
100
ITEM: NUMBER OF ATOMS
107
ITEM: BOX BOUNDS pp pp pp
0.0000000000000000e+00 1.0845000000000001e+01
0.0000000000000000e+00 1.0845000000000001e+01
0.0000000000000000e+00 1.0845000000000001e+01
ITEM: ATOMS id type x y z
1 1 5.15021e-16 0.513532 0.513532
2 1 1.93676 0.0698571 1.81136
3 1 1.93676 1.81136 0.0698571
4 1 -7.25207e-17 0.293481 3.2503
5 1 -1.67734e-17 1.79794 5.39606
6 1 1.7519 0.0292171 5.37008
7 1 1.81421 1.79696 3.49047
8 1 -3.21641e-16 -0.00654187 7.22911
9 1 -1.53978e-16 1.79569 9.04016
10 1 1.72868 0.0426444 9.12285
11 1 1.80341 1.79964 7.22183
12 1 3.37651e-16 3.2503 0.293481
13 1 -6.08269e-17 5.39606 1.79794
14 1 1.81421 3.49047 1.79696
15 1 1.7519 5.37008 0.0292171
16 1 1.22765e-16 3.33182 3.33182
17 1 8.75749e-17 5.3739 5.3739
18 1 1.76371 3.58772 5.38031
19 1 1.76371 5.38031 3.58772
20 1 -4.4248e-17 3.62223 7.2238
21 1 1.38882e-16 5.35746 9.10308
22 1 1.75894 3.59095 9.0763
23 1 1.80346 5.41612 7.23419
24 1 -1.17426e-16 7.22911 -0.00654187
25 1 2.94459e-16 9.04016 1.79569
26 1 1.80341 7.22183 1.79964
27 1 1.72868 9.12285 0.0426444
28 1 -4.8042e-16 7.2238 3.62223
29 1 -2.05865e-16 9.10308 5.35746
30 1 1.80346 7.23419 5.41612
31 1 1.75894 9.0763 3.59095
32 1 -1.37062e-16 7.25401 7.25401
33 1 2.04775e-16 9.14831 9.14831
34 1 1.79737 7.24409 9.06979
35 1 1.79737 9.06979 7.24409
36 1 3.61301 -0.00858163 -0.00858163
37 1 3.62196 1.81741 1.81741
38 1 5.4225 0.0100081 1.80887
39 1 5.4225 1.80887 0.0100081
40 1 3.61454 -0.000489941 3.62957
41 1 3.60372 1.80749 5.39752
42 1 5.4225 0.00937089 5.41062
43 1 5.4225 1.80723 3.59379
44 1 3.62114 0.0017146 7.23512
45 1 3.60483 1.80639 9.03491
46 1 5.4225 0.0069584 9.05484
47 1 5.4225 1.80629 7.23116
48 1 3.61454 3.62957 -0.000489941
49 1 3.60372 5.39752 1.80749
50 1 5.4225 3.59379 1.80723
51 1 5.4225 5.41062 0.00937089
52 1 3.61464 3.61333 3.61333
53 1 3.61542 5.41735 5.41735
54 1 5.4225 3.61021 5.41963
55 1 5.4225 5.41963 3.61021
56 1 3.61908 3.61498 7.22931
57 1 3.61538 5.41776 9.0459
58 1 5.4225 3.61488 9.04094
59 1 5.4225 5.43094 7.22833
60 1 3.62114 7.23512 0.0017146
61 1 3.60483 9.03491 1.80639
62 1 5.4225 7.23116 1.80629
63 1 5.4225 9.05484 0.0069584
64 1 3.61908 7.22931 3.61498
65 1 3.61538 9.0459 5.41776
66 1 5.4225 7.22833 5.43094
67 1 5.4225 9.04094 3.61488
68 1 3.60407 7.23585 7.23585
69 1 3.6139 9.05496 9.05496
70 1 5.4225 7.2298 9.035
71 1 5.4225 9.035 7.2298
72 1 7.23199 -0.00858163 -0.00858163
73 1 7.22304 1.81741 1.81741
74 1 8.90824 0.0698571 1.81136
75 1 8.90824 1.81136 0.0698571
76 1 7.23046 -0.000489941 3.62957
77 1 7.24128 1.80749 5.39752
78 1 9.0931 0.0292171 5.37008
79 1 9.03079 1.79696 3.49047
80 1 7.22386 0.0017146 7.23512
81 1 7.24017 1.80639 9.03491
82 1 9.11632 0.0426444 9.12285
83 1 9.04159 1.79964 7.22183
84 1 7.23046 3.62957 -0.000489941
85 1 7.24128 5.39752 1.80749
86 1 9.03079 3.49047 1.79696
87 1 9.0931 5.37008 0.0292171
88 1 7.23036 3.61333 3.61333
89 1 7.22958 5.41735 5.41735
90 1 9.08129 3.58772 5.38031
91 1 9.08129 5.38031 3.58772
92 1 7.22592 3.61498 7.22931
93 1 7.22962 5.41776 9.0459
94 1 9.08606 3.59095 9.0763
95 1 9.04154 5.41612 7.23419
96 1 7.22386 7.23512 0.0017146
97 1 7.24017 9.03491 1.80639
98 1 9.04159 7.22183 1.79964
99 1 9.11632 9.12285 0.0426444
100 1 7.22592 7.22931 3.61498
101 1 7.22962 9.0459 5.41776
102 1 9.04154 7.23419 5.41612
103 1 9.08606 9.0763 3.59095
104 1 7.24093 7.23585 7.23585
105 1 7.2311 9.05496 9.05496
106 1 9.04763 7.24409 9.06979
107 1 9.04763 9.06979 7.24409

 9.06477 7.27218
 9.06599 9.06121 7.25539
 9.05899 7.24922
