ITEM: TIMESTEP
200
ITEM: NUMBER OF ATOMS
107
ITEM: BOX BOUNDS pp pp pp
0.0000000000000000e+00 1.0845000000000001e+01
0.0000000000000000e+00 1.0845000000000001e+01
0.0000000000000000e+00 1.0845000000000001e+01
ITEM: ATOMS id type x y z
1 1 -1.1801e-15 0.903703 0.903703
2 1 1.96072 -0.0239554 1.83147
3 1 1.96072 1.83147 -0.0239554
4 1 -4.76484e-16 0.0305276 3.51846
5 1 -8.564e-16 1.7977 5.4043
6 1 1.78853 0.0193409 5.41461
7 1 1.65988 1.76002 3.45164
8 1 -8.09092e-16 0.00980129 7.2482
9 1 -8.49018e-16 1.77701 9.134
10 1 1.65986 0.0474807 9.20086
11 1 1.78853 1.78816 7.23788
12 1 -5.56473e-16 3.51846 0.0305276
13 1 1.36782e-16 5.4043 1.7977
14 1 1.65988 3.45164 1.76002
15 1 1.78853 5.41461 0.0193409
16 1 -9.68554e-16 3.50433 3.50433
17 1 -1.31145e-16 5.39213 5.39213
18 1 1.79635 3.58123 5.38682
19 1 1.79635 5.38682 3.58123
20 1 -1.5365e-15 3.60212 7.22872
21 1 7.61937e-17 5.42377 9.05039
22 1 1.7974 3.62579 9.02671
23 1 1.80817 5.43059 7.22191
24 1 1.73947e-16 7.2482 0.00980129
25 1 8.49109e-16 9.134 1.77701
26 1 1.78853 7.23788 1.78816
27 1 1.65986 9.20086 0.0474807
28 1 1.00829e-15 7.22872 3.60212
29 1 3.39401e-17 9.05039 5.42377
30 1 1.80817 7.22191 5.43059
31 1 1.7974 9.02671 3.62579
32 1 -1.2071e-15 7.26037 7.26037
33 1 8.43196e-16 9.14814 9.14814
34 1 1.79636 7.26568 9.07127
35 1 1.79636 9.07127 7.26568
36 1 3.60722 -0.00600415 -0.00600415
37 1 3.60722 1.81351 1.81351
38 1 5.4225 -0.00801094 1.81551
39 1 5.4225 1.81551 -0.00801094
40 1 3.61144 0.00463473 3.64306
41 1 3.59869 1.80568 5.38203
42 1 5.4225 0.00814824 5.42632
43 1 5.4225 1.80105 3.5894
44 1 3.59869 0.00181725 7.27047
45 1 3.61144 1.80287 9.00945
46 1 5.4225 0.00644941 9.0631
47 1 5.4225 1.79935 7.22618
48 1 3.61144 3.64306 0.00463473
49 1 3.59869 5.38203 1.80568
50 1 5.4225 3.5894 1.80105
51 1 5.4225 5.42632 0.00814824
52 1 3.60497 3.58291 3.58291
53 1 3.61211 5.41499 5.41499
54 1 5.4225 3.60966 5.42151
55 1 5.4225 5.42151 3.60966
56 1 3.61408 3.61642 7.21916
57 1 3.61408 5.43335 9.03608
58 1 5.4225 3.62996 9.02254
59 1 5.4225 5.4323 7.2202
60 1 3.59869 7.27047 0.00181725
61 1 3.61144 9.00945 1.80287
62 1 5.4225 7.22618 1.79935
63 1 5.4225 9.0631 0.00644941
64 1 3.61408 7.21916 3.61642
65 1 3.61408 9.03608 5.43335
66 1 5.4225 7.2202 5.4323
67 1 5.4225 9.02254 3.62996
68 1 3.61211 7.23752 7.23752
69 1 3.60497 9.0696 9.0696
70 1 5.4225 7.23099 9.04284
71 1 5.4225 9.04284 7.23099
72 1 7.23778 -0.00600415 -0.00600415
73 1 7.23778 1.81351 1.81351
74 1 8.88428 -0.0239554 1.83147
75 1 8.88428 1.83147 -0.0239554
76 1 7.23356 0.00463473 3.64306
77 1 7.24631 1.80568 5.38203
78 1 9.05647 0.0193409 5.41461
79 1 9.18512 1.76002 3.45164
80 1 7.24631 0.00181725 7.27047
81 1 7.23356 1.80287 9.00945
82 1 9.18514 0.0474807 9.20086
83 1 9.05647 1.78816 7.23788
84 1 7.23356 3.64306 0.00463473
85 1 7.24631 5.38203 1.80568
86 1 9.18512 3.45164 1.76002
87 1 9.05647 5.41461 0.0193409
88 1 7.24003 3.58291 3.58291
89 1 7.23289 5.41499 5.41499
90 1 9.04865 3.58123 5.38682
91 1 9.04865 5.38682 3.58123
92 1 7.23092 3.61642 7.21916
93 1 7.23092 5.43335 9.03608
94 1 9.0476 3.62579 9.02671
95 1 9.03683 5.43059 7.22191
96 1 7.24631 7.27047 0.00181725
97 1 7.23356 9.00945 1.80287
98 1 9.05647 7.23788 1.78816
99 1 9.18514 9.20086 0.0474807
100 1 7.23092 7.21916 3.61642
101 1 7.23092 9.03608 5.43335
102 1 9.03683 7.22191 5.43059
103 1 9.0476 9.02671 3.62579
104 1 7.23289 7.23752 7.23752
105 1 7.24003 9.0696 9.0696
106 1 9.04864 7.26568 9.07127
107 1 9.04864 9.07127 7.26568
5
7.27023 9.06408
107 1 9.08313 9.06408 7.27023
