 # File generated with Atomsk by hari on 2023-02-02 19:04:10
 
         215  atoms
           1  atom types
 
      0.000000000000      15.337146080000  xlo xhi
      0.000000000000      13.282358130000  ylo yhi
      0.000000000000      12.522727340000  zlo zhi
      7.668573040000       7.668573040000       4.427452710000  xy xz yz
 
Masses
 
            1   63.54600000             # Cu
 
Atoms # atomic
 
         1    1        0.000000000000       0.000000000000       0.000000000000
         2    1        1.278095510000       0.737908790000       2.087121220000
         3    1        2.556191010000       1.475817570000       4.174242450000
         4    1        3.834286520000       2.213726360000       6.261363670000
         5    1        5.112382030000       2.951635140000       8.348484890000
         6    1        6.390477530000       3.689543930000      10.435606120000
         7    1        1.278095510000       2.213726360000       0.000000000000
         8    1        2.556191010000       2.951635140000       2.087121220000
         9    1        3.834286520000       3.689543930000       4.174242450000
        10    1        5.112382030000       4.427452710000       6.261363670000
        11    1        6.390477530000       5.165361500000       8.348484890000
        12    1        7.668573040000       5.903270280000      10.435606120000
        13    1        2.556191010000       4.427452710000       0.000000000000
        14    1        3.834286520000       5.165361500000       2.087121220000
        15    1        5.112382030000       5.903270280000       4.174242450000
        16    1        6.390477530000       6.641179070000       6.261363670000
        17    1        7.668573040000       7.379087850000       8.348484890000
        18    1        8.946668550000       8.116996640000      10.435606120000
        19    1        3.834286520000       6.641179070000       0.000000000000
        20    1        5.112382030000       7.379087850000       2.087121220000
        21    1        6.390477530000       8.116996640000       4.174242450000
        22    1        7.668573040000       8.854905420000       6.261363670000
        23    1        8.946668550000       9.592814210000       8.348484890000
        24    1       10.224764060000      10.330722990000      10.435606120000
        25    1        5.112382030000       8.854905420000       0.000000000000
        26    1        6.390477530000       9.592814210000       2.087121220000
        27    1        7.668573040000      10.330722990000       4.174242450000
        28    1        8.946668550000      11.068631780000       6.261363670000
        29    1       10.224764060000      11.806540560000       8.348484890000
        30    1       11.502859560000      12.544449350000      10.435606120000
        31    1        6.390477530000      11.068631780000       0.000000000000
        32    1        7.668573040000      11.806540560000       2.087121220000
        33    1        8.946668550000      12.544449350000       4.174242450000
        34    1       10.224764060000      13.282358130000       6.261363670000
        35    1       11.502859560000      14.020266920000       8.348484890000
        36    1       12.780955070000      14.758175700000      10.435606120000
        37    1        2.556191010000      -0.000000000000      -0.000000000000
        38    1        3.834286520000       0.737908790000       2.087121220000
        39    1        5.112382030000       1.475817570000       4.174242450000
        40    1        6.390477530000       2.213726360000       6.261363670000
        41    1        7.668573040000       2.951635140000       8.348484890000
        42    1        8.946668550000       3.689543930000      10.435606120000
        43    1        3.834286520000       2.213726360000       0.000000000000
        44    1        5.112382030000       2.951635140000       2.087121220000
        45    1        6.390477530000       3.689543930000       4.174242450000
        46    1        7.668573040000       4.427452710000       6.261363670000
        47    1        8.946668550000       5.165361500000       8.348484890000
        48    1       10.224764060000       5.903270280000      10.435606120000
        49    1        5.112382030000       4.427452710000      -0.000000000000
        50    1        6.390477530000       5.165361500000       2.087121220000
        51    1        7.668573040000       5.903270280000       4.174242450000
        52    1        8.946668550000       6.641179070000       6.261363670000
        53    1       10.224764060000       7.379087850000       8.348484890000
        54    1       11.502859560000       8.116996640000      10.435606120000
        55    1        6.390477530000       6.641179070000       0.000000000000
        56    1        7.668573040000       7.379087850000       2.087121220000
        57    1        8.946668550000       8.116996640000       4.174242450000
        58    1       10.224764060000       8.854905420000       6.261363670000
        59    1       11.502859560000       9.592814210000       8.348484890000
        60    1       12.780955070000      10.330722990000      10.435606120000
        61    1        7.668573040000       8.854905420000      -0.000000000000
        62    1        8.946668550000       9.592814210000       2.087121220000
        63    1       10.224764060000      10.330722990000       4.174242450000
        64    1       11.502859560000      11.068631780000       6.261363670000
        65    1       12.780955070000      11.806540560000       8.348484890000
        66    1       14.059050580000      12.544449350000      10.435606120000
        67    1        8.946668550000      11.068631780000      -0.000000000000
        68    1       10.224764060000      11.806540560000       2.087121220000
        69    1       11.502859560000      12.544449350000       4.174242450000
        70    1       12.780955070000      13.282358130000       6.261363670000
        71    1       14.059050580000      14.020266920000       8.348484890000
        72    1       15.337146080000      14.758175700000      10.435606120000
        73    1        5.112382030000      -0.000000000000      -0.000000000000
        74    1        6.390477530000       0.737908790000       2.087121220000
        75    1        7.668573040000       1.475817570000       4.174242450000
        76    1        8.946668550000       2.213726360000       6.261363670000
        77    1       10.224764060000       2.951635140000       8.348484890000
        78    1       11.502859560000       3.689543930000      10.435606120000
        79    1        6.390477530000       2.213726360000      -0.000000000000
        80    1        7.668573040000       2.951635140000       2.087121220000
        81    1        8.946668550000       3.689543930000       4.174242450000
        82    1       10.224764060000       4.427452710000       6.261363670000
        83    1       11.502859560000       5.165361500000       8.348484890000
        84    1       12.780955070000       5.903270280000      10.435606120000
        85    1        7.668573040000       4.427452710000       0.000000000000
        86    1        8.946668550000       5.165361500000       2.087121220000
        87    1       10.224764060000       5.903270280000       4.174242450000
        88    1       11.502859560000       6.641179070000       6.261363670000
        89    1       12.780955070000       7.379087850000       8.348484890000
        90    1       14.059050580000       8.116996640000      10.435606120000
        91    1        8.946668550000       6.641179070000      -0.000000000000
        92    1       10.224764060000       7.379087850000       2.087121220000
        93    1       11.502859560000       8.116996640000       4.174242450000
        94    1       12.780955070000       8.854905420000       6.261363670000
        95    1       14.059050580000       9.592814210000       8.348484890000
        96    1       15.337146080000      10.330722990000      10.435606120000
        97    1       10.224764060000       8.854905420000      -0.000000000000
        98    1       11.502859560000       9.592814210000       2.087121220000
        99    1       12.780955070000      10.330722990000       4.174242450000
       100    1       14.059050580000      11.068631780000       6.261363670000
       101    1       15.337146080000      11.806540560000       8.348484890000
       102    1       16.615241590000      12.544449350000      10.435606120000
       103    1       11.502859560000      11.068631780000       0.000000000000
       104    1       12.780955070000      11.806540560000       2.087121220000
       105    1       14.059050580000      12.544449350000       4.174242450000
       106    1       15.337146080000      13.282358130000       6.261363670000
       107    1       16.615241590000      14.020266920000       8.348484890000
       108    1       17.893337100000      14.758175700000      10.435606120000
       109    1        7.668573040000      -0.000000000000      -0.000000000000
       110    1        8.946668550000       0.737908790000       2.087121220000
       111    1       10.224764060000       1.475817570000       4.174242450000
       112    1       11.502859560000       2.213726360000       6.261363670000
       113    1       12.780955070000       2.951635140000       8.348484890000
       114    1       14.059050580000       3.689543930000      10.435606120000
       115    1        8.946668550000       2.213726360000       0.000000000000
       116    1       10.224764060000       2.951635140000       2.087121220000
       117    1       11.502859560000       3.689543930000       4.174242450000
       118    1       12.780955070000       4.427452710000       6.261363670000
       119    1       14.059050580000       5.165361500000       8.348484890000
       120    1       15.337146080000       5.903270280000      10.435606120000
       121    1       10.224764060000       4.427452710000      -0.000000000000
       122    1       11.502859560000       5.165361500000       2.087121220000
       123    1       12.780955070000       5.903270280000       4.174242450000
       124    1       14.059050580000       6.641179070000       6.261363670000
       125    1       15.337146080000       7.379087850000       8.348484890000
       126    1       16.615241590000       8.116996640000      10.435606120000
       127    1       11.502859560000       6.641179070000      -0.000000000000
       128    1       12.780955070000       7.379087850000       2.087121220000
       129    1       14.059050580000       8.116996640000       4.174242450000
       130    1       16.615241590000       9.592814210000       8.348484890000
       131    1       17.893337100000      10.330722990000      10.435606120000
       132    1       12.780955070000       8.854905420000      -0.000000000000
       133    1       14.059050580000       9.592814210000       2.087121220000
       134    1       15.337146080000      10.330722990000       4.174242450000
       135    1       16.615241590000      11.068631780000       6.261363670000
       136    1       17.893337100000      11.806540560000       8.348484890000
       137    1       19.171432600000      12.544449350000      10.435606120000
       138    1       14.059050580000      11.068631780000       0.000000000000
       139    1       15.337146080000      11.806540560000       2.087121220000
       140    1       16.615241590000      12.544449350000       4.174242450000
       141    1       17.893337100000      13.282358130000       6.261363670000
       142    1       19.171432600000      14.020266920000       8.348484890000
       143    1       20.449528110000      14.758175700000      10.435606120000
       144    1       10.224764060000      -0.000000000000      -0.000000000000
       145    1       11.502859560000       0.737908790000       2.087121220000
       146    1       12.780955070000       1.475817570000       4.174242450000
       147    1       14.059050580000       2.213726360000       6.261363670000
       148    1       15.337146080000       2.951635140000       8.348484890000
       149    1       16.615241590000       3.689543930000      10.435606120000
       150    1       11.502859560000       2.213726360000      -0.000000000000
       151    1       12.780955070000       2.951635140000       2.087121220000
       152    1       14.059050580000       3.689543930000       4.174242450000
       153    1       15.337146080000       4.427452710000       6.261363670000
       154    1       16.615241590000       5.165361500000       8.348484890000
       155    1       17.893337100000       5.903270280000      10.435606120000
       156    1       12.780955070000       4.427452710000      -0.000000000000
       157    1       14.059050580000       5.165361500000       2.087121220000
       158    1       15.337146080000       5.903270280000       4.174242450000
       159    1       16.615241590000       6.641179070000       6.261363670000
       160    1       17.893337100000       7.379087850000       8.348484890000
       161    1       19.171432600000       8.116996640000      10.435606120000
       162    1       14.059050580000       6.641179070000      -0.000000000000
       163    1       15.337146080000       7.379087850000       2.087121220000
       164    1       16.615241590000       8.116996640000       4.174242450000
       165    1       17.893337100000       8.854905420000       6.261363670000
       166    1       19.171432600000       9.592814210000       8.348484890000
       167    1       20.449528110000      10.330722990000      10.435606120000
       168    1       15.337146080000       8.854905420000       0.000000000000
       169    1       16.615241590000       9.592814210000       2.087121220000
       170    1       17.893337100000      10.330722990000       4.174242450000
       171    1       19.171432600000      11.068631780000       6.261363670000
       172    1       20.449528110000      11.806540560000       8.348484890000
       173    1       21.727623620000      12.544449350000      10.435606120000
       174    1       16.615241590000      11.068631780000       0.000000000000
       175    1       17.893337100000      11.806540560000       2.087121220000
       176    1       19.171432600000      12.544449350000       4.174242450000
       177    1       20.449528110000      13.282358130000       6.261363670000
       178    1       21.727623620000      14.020266920000       8.348484890000
       179    1       23.005719130000      14.758175700000      10.435606120000
       180    1       12.780955070000      -0.000000000000      -0.000000000000
       181    1       14.059050580000       0.737908790000       2.087121220000
       182    1       15.337146080000       1.475817570000       4.174242450000
       183    1       16.615241590000       2.213726360000       6.261363670000
       184    1       17.893337100000       2.951635140000       8.348484890000
       185    1       19.171432600000       3.689543930000      10.435606120000
       186    1       14.059050580000       2.213726360000      -0.000000000000
       187    1       15.337146080000       2.951635140000       2.087121220000
       188    1       16.615241590000       3.689543930000       4.174242450000
       189    1       17.893337100000       4.427452710000       6.261363670000
       190    1       19.171432600000       5.165361500000       8.348484890000
       191    1       20.449528110000       5.903270280000      10.435606120000
       192    1       15.337146080000       4.427452710000      -0.000000000000
       193    1       16.615241590000       5.165361500000       2.087121220000
       194    1       17.893337100000       5.903270280000       4.174242450000
       195    1       19.171432600000       6.641179070000       6.261363670000
       196    1       20.449528110000       7.379087850000       8.348484890000
       197    1       21.727623620000       8.116996640000      10.435606120000
       198    1       16.615241590000       6.641179070000       0.000000000000
       199    1       17.893337100000       7.379087850000       2.087121220000
       200    1       19.171432600000       8.116996640000       4.174242450000
       201    1       20.449528110000       8.854905420000       6.261363670000
       202    1       21.727623620000       9.592814210000       8.348484890000
       203    1       23.005719130000      10.330722990000      10.435606120000
       204    1       17.893337100000       8.854905420000       0.000000000000
       205    1       19.171432600000       9.592814210000       2.087121220000
       206    1       20.449528110000      10.330722990000       4.174242450000
       207    1       21.727623620000      11.068631780000       6.261363670000
       208    1       23.005719130000      11.806540560000       8.348484890000
       209    1       24.283814630000      12.544449350000      10.435606120000
       210    1       19.171432600000      11.068631780000      -0.000000000000
       211    1       20.449528110000      11.806540560000       2.087121220000
       212    1       21.727623620000      12.544449350000       4.174242450000
       213    1       23.005719130000      13.282358130000       6.261363670000
       214    1       24.283814630000      14.020266920000       8.348484890000
       215    1       25.561910140000      14.758175700000      10.435606120000
