ITEM: TIMESTEP
0
ITEM: NUMBER OF ATOMS
107
ITEM: BOX BOUNDS pp pp pp
0.0000000000000000e+00 1.0845000000000001e+01
0.0000000000000000e+00 1.0845000000000001e+01
0.0000000000000000e+00 1.0845000000000001e+01
ITEM: ATOMS id type element x y z fx fy fz c_energy
1 1 Cu 0 0.225938 0.225938 -1.38778e-16 -1.59595e-16 -2.498e-16 -3.49468
2 1 Cu 1.8075 0 1.8075 -0.0354279 0.0372715 0.000369277 -3.481
3 1 Cu 1.8075 1.8075 0 -0.0354279 0.000369277 0.0372715 -3.481
4 1 Cu 0 0 3.615 -3.95517e-16 0.0494907 -0.0591999 -3.49572
5 1 Cu 0 1.8075 5.4225 -4.51028e-16 -0.000405146 0.0847177 -3.52041
6 1 Cu 1.8075 0 5.4225 -0.0026162 0.000271556 0.00866273 -3.54067
7 1 Cu 1.8075 1.8075 3.615 -0.0551126 -0.00924721 -0.0621277 -3.48757
8 1 Cu 0 0 7.23 -3.05311e-16 0.0107558 -0.0281126 -3.52747
9 1 Cu 0 1.8075 9.0375 -2.87964e-16 -0.0084418 -0.0796523 -3.52124
10 1 Cu 1.8075 0 9.0375 -0.0378471 0.000444116 0.0304173 -3.54329
11 1 Cu 1.8075 1.8075 7.23 -0.00773822 0.000272384 -0.0047737 -3.53725
12 1 Cu 0 3.615 0 -3.67761e-16 -0.0591999 0.0494907 -3.49572
13 1 Cu 0 5.4225 1.8075 -4.51028e-16 0.0847177 -0.000405146 -3.52041
14 1 Cu 1.8075 3.615 1.8075 -0.0551126 -0.0621277 -0.00924721 -3.48757
15 1 Cu 1.8075 5.4225 0 -0.0026162 0.00866273 0.000271556 -3.54067
16 1 Cu 0 3.615 3.615 -4.61436e-16 -0.0448119 -0.0448119 -3.48351
17 1 Cu 0 5.4225 5.4225 -5.34295e-16 -0.00921416 -0.00921416 -3.5386
18 1 Cu 1.8075 3.615 5.4225 -0.00103284 -0.00109012 0.00427585 -3.54063
19 1 Cu 1.8075 5.4225 3.615 -0.00103284 0.00427585 -0.00109012 -3.54063
20 1 Cu 0 3.615 7.23 -4.02456e-16 -0.00958673 -0.000472996 -3.53755
21 1 Cu 0 5.4225 9.0375 -2.91434e-16 -0.00367916 0.010029 -3.53872
22 1 Cu 1.8075 3.615 9.0375 -0.00384699 -0.00759906 0.000538955 -3.54116
23 1 Cu 1.8075 5.4225 7.23 0.00109025 0.000919274 0.00091149 -3.53622
24 1 Cu 0 7.23 0 -3.747e-16 -0.0281126 0.0107558 -3.52747
25 1 Cu 0 9.0375 1.8075 -2.81025e-16 -0.0796523 -0.0084418 -3.52124
26 1 Cu 1.8075 7.23 1.8075 -0.00773822 -0.0047737 0.000272384 -3.53725
27 1 Cu 1.8075 9.0375 0 -0.0378471 0.0304173 0.000444116 -3.54329
28 1 Cu 0 7.23 3.615 -4.68375e-16 -0.000472996 -0.00958673 -3.53755
29 1 Cu 0 9.0375 5.4225 -2.63678e-16 0.010029 -0.00367916 -3.53872
30 1 Cu 1.8075 7.23 5.4225 0.00109025 0.00091149 0.000919274 -3.53622
31 1 Cu 1.8075 9.0375 3.615 -0.00384699 0.000538955 -0.00759906 -3.54116
32 1 Cu 0 7.23 7.23 -3.88578e-16 0.00580821 0.00580821 -3.53754
33 1 Cu 0 9.0375 9.0375 -1.94289e-16 0.0764739 0.0764739 -3.53986
34 1 Cu 1.8075 7.23 9.0375 0.0066265 -0.00911516 -0.00389919 -3.53622
35 1 Cu 1.8075 9.0375 7.23 0.0066265 -0.00389919 -0.00911516 -3.53622
36 1 Cu 3.615 0 0 0.00367712 0.00664004 0.00664004 -3.54001
37 1 Cu 3.615 1.8075 1.8075 0.0642691 -0.00713451 -0.00713451 -3.52185
38 1 Cu 5.4225 0 1.8075 1.77375e-16 0.00591425 -0.00055938 -3.53735
39 1 Cu 5.4225 1.8075 0 2.27249e-16 -0.00055938 0.00591425 -3.53735
40 1 Cu 3.615 0 3.615 0.00235291 -0.000366625 -0.00210235 -3.53984
41 1 Cu 3.615 1.8075 5.4225 -0.00888014 0.000438121 -0.00726271 -3.53856
42 1 Cu 5.4225 0 5.4225 1.63064e-16 -0.00131975 -0.000371246 -3.53621
43 1 Cu 5.4225 1.8075 3.615 1.59703e-16 0.00150932 -0.0059224 -3.53741
44 1 Cu 3.615 0 7.23 -0.00416456 -0.00396554 0.00214903 -3.53705
45 1 Cu 3.615 1.8075 9.0375 -0.0102792 -0.000109326 0.010119 -3.53856
46 1 Cu 5.4225 0 9.0375 2.1684e-16 -0.00390164 0.000849144 -3.53638
47 1 Cu 5.4225 1.8075 7.23 2.60642e-16 -0.000627663 0.00012985 -3.53619
48 1 Cu 3.615 3.615 0 0.00235291 -0.00210235 -0.000366625 -3.53984
49 1 Cu 3.615 5.4225 1.8075 -0.00888014 -0.00726271 0.000438121 -3.53856
50 1 Cu 5.4225 3.615 1.8075 2.25839e-16 -0.0059224 0.00150932 -3.53741
51 1 Cu 5.4225 5.4225 0 2.47198e-16 -0.000371246 -0.00131975 -3.53621
52 1 Cu 3.615 3.615 3.615 0.00543035 0.000923601 0.000923601 -3.54053
53 1 Cu 3.615 5.4225 5.4225 -0.00266231 -0.00314034 -0.00314034 -3.53637
54 1 Cu 5.4225 3.615 5.4225 1.53089e-16 0.00150839 -0.00179322 -3.53621
55 1 Cu 5.4225 5.4225 3.615 2.08167e-16 -0.00179322 0.00150839 -3.53621
56 1 Cu 3.615 3.615 7.23 -0.00129746 0.000895391 -0.000775447 -3.53622
57 1 Cu 3.615 5.4225 9.0375 -0.00351871 6.6584e-06 0.00277839 -3.53637
58 1 Cu 5.4225 3.615 9.0375 2.8791e-16 0.00184887 0.000354423 -3.53619
59 1 Cu 5.4225 5.4225 7.23 2.94036e-16 0.000732649 -0.000200634 -3.53617
60 1 Cu 3.615 7.23 0 -0.00416456 0.00214903 -0.00396554 -3.53705
61 1 Cu 3.615 9.0375 1.8075 -0.0102792 0.010119 -0.000109326 -3.53856
62 1 Cu 5.4225 7.23 1.8075 2.90133e-16 0.00012985 -0.000627663 -3.53619
63 1 Cu 5.4225 9.0375 0 2.19009e-16 0.000849144 -0.00390164 -3.53638
64 1 Cu 3.615 7.23 3.615 -0.00129746 -0.000775447 0.000895391 -3.53622
65 1 Cu 3.615 9.0375 5.4225 -0.00351871 0.00277839 6.6584e-06 -3.53637
66 1 Cu 5.4225 7.23 5.4225 2.74086e-16 -0.000200634 0.000732649 -3.53617
67 1 Cu 5.4225 9.0375 3.615 3.4437e-16 0.000354423 0.00184887 -3.53619
68 1 Cu 3.615 7.23 7.23 -0.00229756 0.00290173 0.00290173 -3.53629
69 1 Cu 3.615 9.0375 9.0375 0.00417323 -0.00311591 -0.00311591 -3.53617
70 1 Cu 5.4225 7.23 9.0375 3.03522e-16 0.00218354 -1.28652e-05 -3.53621
71 1 Cu 5.4225 9.0375 7.23 3.03902e-16 -1.28652e-05 0.00218354 -3.53621
72 1 Cu 7.23 0 0 -0.00367712 0.00664004 0.00664004 -3.54001
73 1 Cu 7.23 1.8075 1.8075 -0.0642691 -0.00713451 -0.00713451 -3.52185
74 1 Cu 9.0375 0 1.8075 0.0354279 0.0372715 0.000369277 -3.481
75 1 Cu 9.0375 1.8075 0 0.0354279 0.000369277 0.0372715 -3.481
76 1 Cu 7.23 0 3.615 -0.00235291 -0.000366625 -0.00210235 -3.53984
77 1 Cu 7.23 1.8075 5.4225 0.00888014 0.000438121 -0.00726271 -3.53856
78 1 Cu 9.0375 0 5.4225 0.0026162 0.000271556 0.00866273 -3.54067
79 1 Cu 9.0375 1.8075 3.615 0.0551126 -0.00924721 -0.0621277 -3.48757
80 1 Cu 7.23 0 7.23 0.00416456 -0.00396554 0.00214903 -3.53705
81 1 Cu 7.23 1.8075 9.0375 0.0102792 -0.000109326 0.010119 -3.53856
82 1 Cu 9.0375 0 9.0375 0.0378471 0.000444116 0.0304173 -3.54329
83 1 Cu 9.0375 1.8075 7.23 0.00773822 0.000272384 -0.0047737 -3.53725
84 1 Cu 7.23 3.615 0 -0.00235291 -0.00210235 -0.000366625 -3.53984
85 1 Cu 7.23 5.4225 1.8075 0.00888014 -0.00726271 0.000438121 -3.53856
86 1 Cu 9.0375 3.615 1.8075 0.0551126 -0.0621277 -0.00924721 -3.48757
87 1 Cu 9.0375 5.4225 0 0.0026162 0.00866273 0.000271556 -3.54067
88 1 Cu 7.23 3.615 3.615 -0.00543035 0.000923601 0.000923601 -3.54053
89 1 Cu 7.23 5.4225 5.4225 0.00266231 -0.00314034 -0.00314034 -3.53637
90 1 Cu 9.0375 3.615 5.4225 0.00103284 -0.00109012 0.00427585 -3.54063
91 1 Cu 9.0375 5.4225 3.615 0.00103284 0.00427585 -0.00109012 -3.54063
92 1 Cu 7.23 3.615 7.23 0.00129746 0.000895391 -0.000775447 -3.53622
93 1 Cu 7.23 5.4225 9.0375 0.00351871 6.6584e-06 0.00277839 -3.53637
94 1 Cu 9.0375 3.615 9.0375 0.00384699 -0.00759906 0.000538955 -3.54116
95 1 Cu 9.0375 5.4225 7.23 -0.00109025 0.000919274 0.00091149 -3.53622
96 1 Cu 7.23 7.23 0 0.00416456 0.00214903 -0.00396554 -3.53705
97 1 Cu 7.23 9.0375 1.8075 0.0102792 0.010119 -0.000109326 -3.53856
98 1 Cu 9.0375 7.23 1.8075 0.00773822 -0.0047737 0.000272384 -3.53725
99 1 Cu 9.0375 9.0375 0 0.0378471 0.0304173 0.000444116 -3.54329
100 1 Cu 7.23 7.23 3.615 0.00129746 -0.000775447 0.000895391 -3.53622
101 1 Cu 7.23 9.0375 5.4225 0.00351871 0.00277839 6.6584e-06 -3.53637
102 1 Cu 9.0375 7.23 5.4225 -0.00109025 0.00091149 0.000919274 -3.53622
103 1 Cu 9.0375 9.0375 3.615 0.00384699 0.000538955 -0.00759906 -3.54116
104 1 Cu 7.23 7.23 7.23 0.00229756 0.00290173 0.00290173 -3.53629
105 1 Cu 7.23 9.0375 9.0375 -0.00417323 -0.00311591 -0.00311591 -3.53617
106 1 Cu 9.0375 7.23 9.0375 -0.0066265 -0.00911516 -0.00389919 -3.53622
107 1 Cu 9.0375 9.0375 7.23 -0.0066265 -0.00389919 -0.00911516 -3.53622
7.23 -0.00182396 0.00111758 -3.92048e-16 -3.53621
