ITEM: TIMESTEP
0
ITEM: NUMBER OF ATOMS
215
ITEM: BOX BOUNDS xy xz yz pp pp pp
0.0000000000000000e+00 3.0674292160000000e+01 7.6685730400000001e+00
0.0000000000000000e+00 1.7709810839999999e+01 7.6685730400000001e+00
0.0000000000000000e+00 1.2522727339999999e+01 4.4274527099999998e+00
ITEM: ATOMS id type element x y z fx fy fz c_energy
1 1 Cu 0 0 0 9.3168e-10 3.45735e-09 -2.10313e-10 -3.53996
2 1 Cu 1.2781 0.737909 2.08712 -3.26424e-09 -5.71596e-09 3.6396e-09 -3.53996
3 1 Cu 25.5619 14.7582 4.17424 0.000376364 0.000217295 0.000614588 -3.53996
4 1 Cu 19.1714 2.21373 6.26136 -5.62544e-05 -3.24845e-05 -9.18688e-05 -3.53996
5 1 Cu 5.11238 2.95164 8.34848 -0.000236595 -0.000136592 -0.000386347 -3.53996
6 1 Cu 21.7276 3.68954 10.4356 -8.35043e-05 -4.82189e-05 -0.000136375 -3.53996
7 1 Cu 1.2781 2.21373 0 -3.26424e-09 -5.13844e-09 -1.59095e-09 -3.53996
8 1 Cu 17.8933 2.95164 2.08712 -0.00101414 0.00172828 0.00122167 -3.53996
9 1 Cu 19.1714 3.68954 4.17424 -0.00146665 0.00105728 0.000794729 -3.53996
10 1 Cu 5.11238 4.42745 6.26136 -0.00196304 0.00154637 0.000404503 -3.53996
11 1 Cu 21.7276 5.16536 8.34848 -0.00188318 0.000949541 -0.000130751 -3.53996
12 1 Cu 23.0057 5.90327 10.4356 -0.000504831 0.000363632 -0.00010255 -3.53996
13 1 Cu 17.8933 4.42745 0 0.000474751 0.000695659 0.000134581 -3.53996
14 1 Cu 19.1714 5.16536 2.08712 -0.00112018 0.000969652 0.000466027 -3.53996
15 1 Cu 5.11238 5.90327 4.17424 -0.000225745 0.00047125 0.000495643 -3.53996
16 1 Cu 21.7276 6.64118 6.26136 -0.00211213 0.000907336 3.99554e-06 -3.53996
17 1 Cu 7.66857 7.37909 8.34848 0.000263911 0.000386557 -0.000267887 -3.53996
18 1 Cu 24.2838 8.117 10.4356 0.00117533 0.000158633 -0.00115777 -3.53996
19 1 Cu 19.1714 6.64118 0 -7.37746e-05 -7.81266e-05 7.812e-05 -3.53996
20 1 Cu 5.11238 7.37909 2.08712 -0.00136585 0.000520209 0.000758393 -3.53996
21 1 Cu 21.7276 8.117 4.17424 -0.00216274 0.000600093 0.00100081 -3.53996
22 1 Cu 7.66857 8.85491 6.26136 7.81252e-05 8.06329e-05 -7.1025e-05 -3.53996
23 1 Cu 8.94667 9.59281 8.34848 0.00145232 -0.000470289 -0.000617185 -3.53996
24 1 Cu 10.2248 10.3307 10.4356 0.00207176 -0.000652619 -0.00114938 -3.53996
25 1 Cu 5.11238 8.85491 0 -0.000239101 -0.000372225 0.000308405 -3.53996
26 1 Cu 21.7276 9.59281 2.08712 -0.00148718 -0.000338693 0.000648516 -3.53996
27 1 Cu 23.0057 10.3307 4.17424 7.33335e-05 -0.000379218 0.000760418 -3.53996
28 1 Cu 8.94667 11.0686 6.26136 0.00122051 -0.000911736 -0.00030218 -3.53996
29 1 Cu 10.2248 11.8065 8.34848 0.000653597 -0.000224216 0.000203051 -3.53996
30 1 Cu 26.84 12.5444 10.4356 0.00132127 -0.00136396 -0.0012955 -3.53996
31 1 Cu 21.7276 11.0686 0 0.000273664 -0.000497102 -0.000274962 -3.53996
32 1 Cu 7.66857 11.8065 2.08712 3.89664e-09 3.85489e-09 3.85393e-09 -3.53996
33 1 Cu 24.2838 12.5444 4.17424 0.00200347 -0.0011571 0.000393886 -3.53996
34 1 Cu 10.2248 13.2824 6.26136 0.00168743 -0.000929815 -0.000434192 -3.53996
35 1 Cu 26.84 14.0203 8.34848 0.00175819 -0.00166463 -0.000739014 -3.53996
36 1 Cu 12.781 14.7582 10.4356 0.00110894 -0.00139655 -0.00113358 -3.53996
37 1 Cu 2.55619 0 0 6.38432e-09 4.53357e-09 5.50693e-10 -3.53996
38 1 Cu 3.83429 0.737909 2.08712 0.000989658 -0.00174242 0.00122167 -3.53996
39 1 Cu 12.781 14.7582 4.17424 0.00018231 -0.0017988 0.000794731 -3.53996
40 1 Cu 6.39048 2.21373 6.26136 0.000357676 -0.00247322 0.000404501 -3.53996
41 1 Cu 7.66857 2.95164 8.34848 -0.000119259 -0.00210565 -0.000130749 -3.53996
42 1 Cu 8.94667 3.68954 10.4356 6.24921e-05 -0.000619019 -0.000102552 -3.53996
43 1 Cu 3.83429 2.21373 0 0.00115625 0.000667558 -0.00179178 -3.53996
44 1 Cu 5.11238 2.95164 2.08712 0.000235431 0.000135934 -0.000218881 -3.53996
45 1 Cu 6.39048 3.68954 4.17424 -0.000609159 -0.000351706 0.000234291 -3.53996
46 1 Cu 7.66857 4.42745 6.26136 4.72758e-05 2.72985e-05 0.000133855 -3.53996
47 1 Cu 8.94667 5.16536 8.34848 0.00163555 0.00094428 -0.00039526 -3.53996
48 1 Cu 10.2248 5.90327 10.4356 0.00176092 0.00101667 -0.00141296 -3.53996
49 1 Cu 5.11238 4.42745 0 -0.000807715 -6.90479e-06 -0.00156782 -3.53996
50 1 Cu 6.39048 5.16536 2.08712 -0.000624857 0.000446606 6.6708e-05 -3.53996
51 1 Cu 7.66857 5.90327 4.17424 0.000270255 0.000745452 -8.49218e-05 -3.53996
52 1 Cu 8.94667 6.64118 6.26136 0.00122943 0.000907531 0.000279955 -3.53996
53 1 Cu 10.2248 7.37909 8.34848 -0.00335566 -0.000685014 0.00189579 -3.53998
54 1 Cu 11.5029 8.117 10.4356 -0.00245542 -0.00063008 0.0026486 -3.53998
55 1 Cu 6.39048 6.64118 0 0.00306903 -0.00242957 -0.00849119 -3.54113
56 1 Cu 7.66857 7.37909 2.08712 -3.83327e-05 0.000139314 0.000566971 -3.53996
57 1 Cu 8.94667 8.117 4.17424 0.00166761 0.000514111 0.000431292 -3.53996
58 1 Cu 10.2248 8.85491 6.26136 0.010929 0.000295173 0.000353572 -3.54141
59 1 Cu 11.5029 9.59281 8.34848 0.0109667 -0.00354808 -0.00966774 -3.54811
60 1 Cu 12.781 10.3307 10.4356 0.00568972 -0.00134578 -0.00398678 -3.54174
61 1 Cu 7.66857 8.85491 0 -0.000930455 0.00125519 0.000307709 -3.53997
62 1 Cu 8.94667 9.59281 2.08712 0.00204521 -0.000483335 0.000536695 -3.53996
63 1 Cu 10.2248 10.3307 4.17424 -0.00463691 0.00128687 -0.00188415 -3.53998
64 1 Cu 11.5029 11.0686 6.26136 0.0181767 -0.0107411 0.000141036 -3.54981
65 1 Cu 12.781 11.8065 8.34848 0.0113906 -0.0106131 -0.0090979 -3.54822
66 1 Cu 14.0591 12.5444 10.4356 -0.000286015 0.00164897 0.00456367 -3.54221
67 1 Cu 8.94667 11.0686 0 0.000117051 -0.000710394 -0.000358961 -3.53996
68 1 Cu 10.2248 11.8065 2.08712 0.00196086 -0.00113342 0.00160012 -3.53996
69 1 Cu 11.5029 12.5444 4.17424 -0.00328273 0.00330417 -0.00168411 -3.53998
70 1 Cu 12.781 13.2824 6.26136 0.00634061 -0.0099592 0.000723406 -3.54141
71 1 Cu 14.0591 14.0203 8.34848 -0.000848134 0.00335725 0.0013352 -3.5401
72 1 Cu 15.3371 14.7582 10.4356 -0.000612408 8.56178e-05 -0.000689514 -3.53997
73 1 Cu 5.11238 0 0 0.000839822 6.33189e-05 0.000134581 -3.53996
74 1 Cu 6.39048 0.737909 2.08712 0.000279666 -0.00145494 0.000466028 -3.53996
75 1 Cu 15.3371 14.7582 4.17424 0.000295242 -0.000431115 0.000495643 -3.53996
76 1 Cu 8.94667 2.21373 6.26136 -0.000270292 -0.00228284 3.99617e-06 -3.53996
77 1 Cu 10.2248 2.95164 8.34848 0.000466714 3.52787e-05 -0.000267886 -3.53996
78 1 Cu 11.5029 3.68954 10.4356 0.000725054 0.000938539 -0.00115777 -3.53996
79 1 Cu 6.39048 2.21373 0 -0.000409833 -0.000696047 -0.00156782 -3.53996
80 1 Cu 7.66857 2.95164 2.08712 7.43465e-05 -0.000764448 6.67095e-05 -3.53996
81 1 Cu 8.94667 3.68954 4.17424 0.000780702 -0.000138682 -8.49232e-05 -3.53996
82 1 Cu 10.2248 4.42745 6.26136 0.00140066 0.000610958 0.000279957 -3.53996
83 1 Cu 11.5029 5.16536 8.34848 -0.00227106 -0.00256357 0.00189579 -3.53998
84 1 Cu 12.781 5.90327 10.4356 -0.00177338 -0.00181142 0.0026486 -3.53998
85 1 Cu 7.66857 4.42745 0 0.000933234 0.000538806 -0.0041345 -3.54391
86 1 Cu 8.94667 5.16536 2.08712 0.000620029 0.00035797 0.00250213 -3.53996
87 1 Cu 10.2248 5.90327 4.17424 -0.00059773 -0.000345092 -0.00104368 -3.53997
88 1 Cu 11.5029 6.64118 6.26136 0.0207174 0.0119612 0.00103854 -3.54985
89 1 Cu 12.781 7.37909 8.34848 -0.0184929 -0.0106769 0.0130645 -3.55412
90 1 Cu 14.0591 8.117 10.4356 0.00138805 0.000801387 -0.0137446 -3.54975
91 1 Cu 8.94667 6.64118 0 0.00114102 -0.00202411 -0.00801105 -3.54541
92 1 Cu 10.2248 7.37909 2.08712 0.00199575 0.00088422 0.00141949 -3.53996
93 1 Cu 11.5029 8.117 4.17424 0.0187239 0.00374287 0.0103382 -3.54986
94 1 Cu 12.781 8.85491 6.26136 -0.136594 -0.000168243 0.00154572 -3.50533
95 1 Cu 14.0591 9.59281 8.34848 -0.129743 0.0384791 0.0996156 -3.51975
96 1 Cu 15.3371 10.3307 10.4356 -0.0109232 -0.01458 -0.0345589 -3.53247
97 1 Cu 10.2248 8.85491 0 0.00129869 0.00228981 0.00320972 -3.53997
98 1 Cu 11.5029 9.59281 2.08712 -0.00380838 0.000132188 -0.00457082 -3.53998
99 1 Cu 12.781 10.3307 4.17424 -0.0173813 0.00946921 -0.014592 -3.5573
100 1 Cu 14.0591 11.0686 6.26136 -0.0437498 0.101358 0.0180886 -3.51449
101 1 Cu 15.3371 11.8065 8.34848 -0.0107167 0.00930583 -0.00654496 -3.55524
102 1 Cu 16.6152 12.5444 10.4356 0.00231192 0.0253606 0.0207642 -3.54113
103 1 Cu 11.5029 11.0686 0 0.000717261 -0.00125003 0.00162096 -3.53996
104 1 Cu 12.781 11.8065 2.08712 -0.00228137 0.00264684 -0.00380743 -3.53998
105 1 Cu 14.0591 12.5444 4.17424 0.00631651 -0.0175885 0.0098248 -3.54981
106 1 Cu 15.3371 13.2824 6.26136 -0.00130092 -0.0179405 0.00126466 -3.54822
107 1 Cu 16.6152 14.0203 8.34848 0.00277419 0.00341578 0.00206504 -3.54221
108 1 Cu 17.8933 14.7582 10.4356 -0.000473445 0.00151905 -6.54493e-05 -3.53997
109 1 Cu 7.66857 0 0 -0.00010454 -2.48267e-05 7.81216e-05 -3.53996
110 1 Cu 8.94667 0.737909 2.08712 -0.000232416 -0.00144297 0.000758392 -3.53996
111 1 Cu 17.8933 14.7582 4.17424 -0.000561678 -0.00217304 0.00100081 -3.53996
112 1 Cu 11.5029 2.21373 6.26136 0.000108893 2.73361e-05 -7.10257e-05 -3.53996
113 1 Cu 12.781 2.95164 8.34848 0.00031888 0.00149289 -0.000617183 -3.53996
114 1 Cu 14.0591 3.68954 10.4356 0.00047069 0.00212051 -0.00114939 -3.53996
115 1 Cu 8.94667 2.21373 0 -0.000569557 0.00387264 -0.00849119 -3.54113
116 1 Cu 10.2248 2.95164 2.08712 0.000101473 -0.000102849 0.000566971 -3.53996
117 1 Cu 11.5029 3.68954 4.17424 0.00127905 0.00118713 0.000431292 -3.53996
118 1 Cu 12.781 4.42745 6.26136 0.00572011 0.00931718 0.000353573 -3.54141
119 1 Cu 14.0591 5.16536 8.34848 0.00241062 0.0112715 -0.00966774 -3.54811
120 1 Cu 15.3371 5.90327 10.4356 0.00167938 0.00560034 -0.00398678 -3.54174
121 1 Cu 10.2248 4.42745 0 -0.00118242 0.00200021 -0.00801105 -3.54541
122 1 Cu 11.5029 5.16536 2.08712 0.00176363 0.00128626 0.00141948 -3.53996
123 1 Cu 12.781 5.90327 4.17424 0.0126034 0.0143439 0.0103382 -3.54986
124 1 Cu 14.0591 6.64118 6.26136 -0.0684428 -0.11821 0.00154571 -3.50533
125 1 Cu 15.3371 7.37909 8.34848 -0.0315474 -0.1316 0.0996156 -3.51975
126 1 Cu 16.6152 8.117 10.4356 -0.0180882 -0.00216975 -0.0345589 -3.53247
127 1 Cu 11.5029 6.64118 0 -0.00576602 -0.00332902 -0.00941589 -3.54139
128 1 Cu 12.781 7.37909 2.08712 0.00434007 0.00250574 0.0070873 -3.54141
129 1 Cu 14.0591 8.117 4.17424 -0.073599 -0.0424924 -0.120187 -3.50659
130 1 Cu 16.4022 9.46983 8.00063 2.12986e-09 -4.44078e-09 2.65789e-10 -3.45922
131 1 Cu 17.8933 10.3307 10.4356 0.00212689 0.00122797 0.0034732 -3.51097
132 1 Cu 12.781 8.85491 0 0.000648498 0.000106383 0.00251951 -3.53996
133 1 Cu 14.0591 9.59281 2.08712 0.00628017 -0.00344151 0.0204985 -3.54986
134 1 Cu 15.3371 10.3307 4.17424 0.00135921 0.0794792 -0.111093 -3.50533
135 1 Cu 16.6152 11.0686 6.26136 0.0591198 0.147519 -0.0545899 -3.51975
136 1 Cu 17.8933 11.8065 8.34848 -0.0197995 -0.0197047 -0.0273114 -3.53247
137 1 Cu 19.1714 12.5444 10.4356 -0.00537237 -0.00578462 -0.00269289 -3.54541
138 1 Cu 14.0591 11.0686 0 5.53237e-05 -0.000416743 0.00174772 -3.53996
139 1 Cu 15.3371 11.8065 2.08712 0.000118279 -0.00594638 0.00918047 -3.54141
140 1 Cu 16.6152 12.5444 4.17424 -0.0058452 -0.0132544 0.00405911 -3.54811
141 1 Cu 17.8933 13.2824 6.26136 -0.0024782 -0.00606153 0.0026823 -3.54174
142 1 Cu 19.1714 14.0203 8.34848 -0.00553031 -0.00739441 -0.00146985 -3.54113
143 1 Cu 20.4495 14.7582 10.4356 0.000382498 0.000382281 0.000223356 -3.53996
144 1 Cu 10.2248 0 0 -0.000441914 -2.09447e-05 0.000308407 -3.53996
145 1 Cu 11.5029 0.737909 2.08712 -0.0010369 -0.0011186 0.000648516 -3.53996
146 1 Cu 20.4495 14.7582 4.17424 -0.000291752 0.000253122 0.000760419 -3.53996
147 1 Cu 14.0591 2.21373 6.26136 -0.00017933 0.00151285 -0.000302179 -3.53996
148 1 Cu 15.3371 2.95164 8.34848 0.000132626 0.00067815 0.000203051 -3.53996
149 1 Cu 16.6152 3.68954 10.4356 -0.00052059 0.00182622 -0.0012955 -3.53996
150 1 Cu 11.5029 2.21373 0 0.000621799 -0.0014334 0.000307707 -3.53997
151 1 Cu 12.781 2.95164 2.08712 0.000604028 0.00201287 0.000536696 -3.53996
152 1 Cu 14.0591 3.68954 4.17424 -0.001204 -0.00465912 -0.00188415 -3.53998
153 1 Cu 15.3371 4.42745 6.26136 -0.000213705 0.021112 0.000141037 -3.54981
154 1 Cu 16.6152 5.16536 8.34848 -0.00349594 0.0151711 -0.0090979 -3.54822
155 1 Cu 17.8933 5.90327 10.4356 0.00128505 -0.00107218 0.00456367 -3.54221
156 1 Cu 12.781 4.42745 0 0.00263238 -2.01937e-05 0.00320972 -3.53997
157 1 Cu 14.0591 5.16536 2.08712 -0.00178971 -0.00336426 -0.00457082 -3.53998
158 1 Cu 15.3371 5.90327 4.17424 -0.000490094 -0.0197873 -0.014592 -3.5573
159 1 Cu 16.6152 6.64118 6.26136 0.0659038 -0.0885675 0.0180886 -3.51449
160 1 Cu 17.8933 7.37909 8.34848 0.00270074 -0.0139338 -0.00654496 -3.55524
161 1 Cu 19.1714 8.117 10.4356 0.0231189 -0.0106781 0.0207642 -3.54113
162 1 Cu 14.0591 6.64118 0 0.000416371 0.000508422 0.00251951 -3.53996
163 1 Cu 15.3371 7.37909 2.08712 0.000159661 0.00715955 0.0204985 -3.54986
164 1 Cu 16.6152 8.117 4.17424 0.0695106 -0.0385625 -0.111093 -3.50533
165 1 Cu 17.8933 8.85491 6.26136 0.157315 -0.0225601 -0.0545899 -3.51975
166 1 Cu 19.1714 9.59281 8.34848 -0.0269645 -0.00729449 -0.0273114 -3.53247
167 1 Cu 20.4495 10.3307 10.4356 -0.00769581 -0.0017603 -0.00269289 -3.54541
168 1 Cu 15.3371 8.85491 0 -0.000652915 -0.000376959 -0.000998613 -3.53997
169 1 Cu 16.6152 9.59281 2.08712 -0.00605784 -0.0034975 0.0229004 -3.54985
170 1 Cu 17.8933 10.3307 4.17424 0.0168314 0.00971762 -0.0157777 -3.55412
171 1 Cu 19.1714 11.0686 6.26136 -0.0116851 -0.00674641 -0.00307042 -3.54975
172 1 Cu 20.4495 11.8065 8.34848 -0.00368688 -0.00212862 -0.000362188 -3.54391
173 1 Cu 21.7276 12.5444 10.4356 0.00183629 0.00106018 0.00150904 -3.53996
174 1 Cu 16.6152 11.0686 0 -0.000295383 2.7178e-05 0.00152496 -3.53996
175 1 Cu 17.8933 11.8065 2.08712 0.00194339 0.00237439 -0.00243086 -3.53998
176 1 Cu 19.1714 12.5444 4.17424 0.00252636 0.00224615 -0.00141901 -3.53998
177 1 Cu 20.4495 13.2824 6.26136 -0.00127613 -0.000277347 -0.00118536 -3.53996
178 1 Cu 21.7276 14.0203 8.34848 -0.00020339 0.000689945 -0.000277425 -3.53996
179 1 Cu 23.0057 14.7582 10.4356 -0.000499726 0.000300908 0.000543759 -3.53996
180 1 Cu 12.781 0 0 -0.000293672 0.00048555 -0.00027496 -3.53996
181 1 Cu 14.0591 0.737909 2.08712 -5.46483e-09 -4.78447e-09 3.71205e-09 -3.53996
182 1 Cu 23.0057 14.7582 4.17424 -3.30232e-07 0.0023136 0.000393888 -3.53996
183 1 Cu 16.6152 2.21373 6.26136 3.8471e-05 0.00192627 -0.000434193 -3.53996
184 1 Cu 17.8933 2.95164 8.34848 -0.000562523 0.00235496 -0.000739011 -3.53996
185 1 Cu 19.1714 3.68954 10.4356 -0.000654976 0.00165864 -0.00113358 -3.53996
186 1 Cu 14.0591 2.21373 0 -0.000556693 0.00045656 -0.000358961 -3.53996
187 1 Cu 15.3371 2.95164 2.08712 -1.13729e-06 0.00226488 0.00160012 -3.53996
188 1 Cu 16.6152 3.68954 4.17424 0.00122013 -0.00449502 -0.00168411 -3.53998
189 1 Cu 17.8933 4.42745 6.26136 -0.00545462 0.0104707 0.000723405 -3.54141
190 1 Cu 19.1714 5.16536 8.34848 0.00248341 -0.00241313 0.0013352 -3.5401
191 1 Cu 20.4495 5.90327 10.4356 -0.000232065 -0.000573164 -0.000689514 -3.53997
192 1 Cu 15.3371 4.42745 0 -0.000723919 0.00124618 0.00162096 -3.53996
193 1 Cu 16.6152 5.16536 2.08712 0.00115154 -0.00329915 -0.00380743 -3.53998
194 1 Cu 17.8933 5.90327 4.17424 -0.0120739 0.0142645 0.00982481 -3.54981
195 1 Cu 19.1714 6.64118 6.26136 -0.0161874 0.00784363 0.00126466 -3.54822
196 1 Cu 20.4495 7.37909 8.34848 0.00434524 0.00069463 0.00206504 -3.54221
197 1 Cu 21.7276 8.117 10.4356 0.00107881 -0.00116954 -6.5451e-05 -3.53997
198 1 Cu 16.6152 6.64118 0 -0.000333242 0.000256281 0.00174772 -3.53996
199 1 Cu 17.8933 7.37909 2.08712 -0.00509059 0.00307563 0.00918047 -3.54141
200 1 Cu 19.1714 8.117 4.17424 -0.0144013 0.00156512 0.00405911 -3.54811
201 1 Cu 20.4495 8.85491 6.26136 -0.00648855 0.000884591 0.0026823 -3.54174
202 1 Cu 21.7276 9.59281 8.34848 -0.0091689 -0.0010922 -0.00146985 -3.54113
203 1 Cu 23.0057 10.3307 10.4356 0.000522303 0.000140117 0.000223357 -3.53996
204 1 Cu 17.8933 8.85491 0 -0.000124157 -0.000269396 0.00152496 -3.53996
205 1 Cu 19.1714 9.59281 2.08712 0.00302798 0.000495833 -0.00243087 -3.53998
206 1 Cu 20.4495 10.3307 4.17424 0.0032084 0.00106481 -0.001419 -3.53998
207 1 Cu 21.7276 11.0686 6.26136 -0.000878262 -0.000966488 -0.00118536 -3.53996
208 1 Cu 23.0057 11.8065 8.34848 0.000495816 -0.000521109 -0.000277424 -3.53996
209 1 Cu 24.2838 12.5444 10.4356 1.07329e-05 -0.000583226 0.000543758 -3.53996
210 1 Cu 19.1714 11.0686 0 -0.00086791 -0.000501095 0.00164881 -3.53996
211 1 Cu 20.4495 11.8065 2.08712 -0.00174065 -0.00100496 0.00144607 -3.53996
212 1 Cu 21.7276 12.5444 4.17424 -0.00184841 -0.00106718 0.000661505 -3.53996
213 1 Cu 23.0057 13.2824 6.26136 -0.000257204 -0.000148489 0.000183348 -3.53996
214 1 Cu 24.2838 14.0203 8.34848 0.00039436 0.000227678 -0.000585072 -3.53996
215 1 Cu 25.5619 14.7582 10.4356 9.35308e-05 5.40064e-05 9.60799e-05 -3.53996
ITEM: TIMESTEP
90
ITEM: NUMBER OF ATOMS
215
ITEM: BOX BOUNDS xy xz yz pp pp pp
0.0000000000000000e+00 3.0674292160000000e+01 7.6685730400000001e+00
0.0000000000000000e+00 1.7709810839999999e+01 7.6685730400000001e+00
0.0000000000000000e+00 1.2522727339999999e+01 4.4274527099999998e+00
ITEM: ATOMS id type element x y z fx fy fz c_energy
1 1 Cu -0.00105891 -0.00061136 -0.00172919 8.0331e-07 4.63787e-07 1.3118e-06 -3.53697
2 1 Cu 1.27858 0.738187 2.08791 4.82581e-07 2.78614e-07 7.88044e-07 -3.53573
3 1 Cu 25.5641 14.7595 4.17786 -2.34326e-06 -1.35288e-06 -3.82654e-06 -3.53895
4 1 Cu 19.1718 2.21391 6.26189 -1.21448e-06 -7.01164e-07 -1.98322e-06 -3.54122
5 1 Cu 5.10944 2.94994 8.34368 2.3182e-06 1.33841e-06 3.7856e-06 -3.5403
6 1 Cu 21.7264 3.68884 10.4336 2.77648e-06 1.60301e-06 4.53398e-06 -3.53804
7 1 Cu 1.29144 2.22582 -0.0118771 -2.92087e-06 -2.98654e-06 4.39356e-06 -3.53563
8 1 Cu 17.9032 2.96304 2.08569 -1.46512e-06 -1.4545e-06 -1.92438e-06 -3.53698
9 1 Cu 19.1783 3.68852 4.17801 -4.82901e-06 -2.19442e-06 -2.05201e-07 -3.53874
10 1 Cu 5.11571 4.42007 6.26013 -4.16898e-06 -1.22803e-06 4.50634e-06 -3.53982
11 1 Cu 21.7244 5.16469 8.3394 4.39042e-07 1.05514e-06 5.93828e-06 -3.53873
12 1 Cu 23.0154 5.90961 10.4219 2.15762e-06 1.13522e-06 4.04238e-06 -3.53708
13 1 Cu 17.9029 4.45024 -0.00131962 -4.47336e-07 -2.69856e-06 -8.36263e-07 -3.53964
14 1 Cu 19.187 5.16906 2.09121 -1.79796e-06 -6.49016e-07 3.54138e-07 -3.53926
15 1 Cu 5.13421 5.8893 4.1691 -5.15042e-06 -1.79267e-06 4.19277e-06 -3.53782
16 1 Cu 21.7418 6.62741 6.25095 -4.01251e-06 -5.26206e-07 5.24001e-06 -3.53997
17 1 Cu 7.66768 7.38223 8.33094 7.70572e-07 1.49836e-06 3.41598e-06 -3.54053
18 1 Cu 24.2908 8.13461 10.4214 2.39449e-06 -8.3795e-07 4.16079e-06 -3.53858
19 1 Cu 19.165 6.649 0.000132105 1.19457e-06 -1.15396e-06 -2.93059e-07 -3.54279
20 1 Cu 5.13137 7.36328 2.07364 2.63624e-07 9.95172e-07 2.76893e-06 -3.54091
21 1 Cu 21.7525 8.0945 4.16678 -3.35459e-06 2.74655e-07 3.5194e-06 -3.54065
22 1 Cu 7.67416 8.84659 6.25984 -1.16968e-06 1.16833e-06 3.33699e-07 -3.54279
23 1 Cu 8.92161 9.60512 8.35205 2.41629e-06 5.52084e-07 1.60735e-06 -3.54091
24 1 Cu 10.1997 10.3531 10.4429 4.63016e-06 4.61789e-07 -1.43641e-06 -3.54065
25 1 Cu 5.09941 8.84376 -0.00509163 2.83638e-06 5.84133e-07 2.47416e-06 -3.54053
26 1 Cu 21.7176 9.57343 2.09634 1.95812e-06 3.35093e-06 2.94701e-06 -3.53858
27 1 Cu 23.0064 10.3139 4.19236 -1.23815e-06 1.72545e-06 -1.91612e-06 -3.53964
28 1 Cu 8.94329 11.072 6.27718 1.00076e-06 1.88774e-07 -1.65594e-06 -3.53926
29 1 Cu 10.2056 11.8221 8.35801 5.48109e-06 1.98358e-06 -3.65279e-06 -3.53782
30 1 Cu 26.8204 12.5551 10.4372 6.1328e-06 1.75036e-06 -1.77759e-06 -3.53997
31 1 Cu 21.7134 11.0597 0.00633393 2.54949e-06 1.58244e-06 3.6443e-06 -3.53708
32 1 Cu 7.65569 11.7947 2.09976 4.18562e-06 3.71674e-06 -2.32824e-06 -3.53563
33 1 Cu 24.281 12.5371 4.18718 -1.25856e-06 -1.18026e-07 -2.52339e-06 -3.53698
34 1 Cu 10.2241 13.287 6.26772 1.61347e-06 3.37949e-07 -5.04574e-06 -3.53874
35 1 Cu 26.8352 14.0268 8.34731 5.40939e-06 1.94419e-06 -2.48075e-06 -3.53982
36 1 Cu 12.775 14.7535 10.4296 4.93365e-06 2.04679e-06 2.8353e-06 -3.53873
37 1 Cu 2.57334 0.00551144 -0.0118771 -4.04686e-06 -1.03628e-06 4.39356e-06 -3.53563
38 1 Cu 3.84908 0.74073 2.08569 -1.99219e-06 -5.41587e-07 -1.92438e-06 -3.53698
39 1 Cu 12.7835 14.7646 4.17801 -4.31494e-06 -3.08482e-06 -2.05203e-07 -3.53874
40 1 Cu 6.38575 2.2203 6.26013 -3.148e-06 -2.99643e-06 4.50634e-06 -3.53982
41 1 Cu 7.66637 2.94915 8.3394 1.13329e-06 -1.47341e-07 5.93828e-06 -3.53873
42 1 Cu 8.95701 3.69478 10.4219 2.06194e-06 1.30095e-06 4.04238e-06 -3.53708
43 1 Cu 3.85832 2.2276 -0.0116422 -3.27026e-06 -1.88809e-06 -1.64729e-06 -3.53704
44 1 Cu 5.124 2.95835 2.0953 -3.46925e-06 -2.00297e-06 -4.1715e-07 -3.53932
45 1 Cu 6.39038 3.68949 4.17919 -5.84791e-06 -3.37629e-06 3.98308e-06 -3.54008
46 1 Cu 7.66168 4.42347 6.25412 -3.79164e-06 -2.18911e-06 5.58652e-06 -3.54036
47 1 Cu 8.9481 5.16619 8.32586 6.48894e-07 3.74646e-07 4.50947e-06 -3.53829
48 1 Cu 10.2479 5.91663 10.4073 9.57087e-07 5.52573e-07 5.30206e-06 -3.53743
49 1 Cu 5.11575 4.43947 0.0199608 -1.41317e-06 -1.4052e-06 -6.19227e-07 -3.54016
50 1 Cu 6.40182 5.16516 2.09544 -2.78512e-06 -1.11825e-06 2.96429e-06 -3.54003
51 1 Cu 7.67518 5.89461 4.16833 -4.50718e-06 -1.36502e-06 3.71331e-06 -3.54073
52 1 Cu 8.93211 6.62993 6.2431 -2.60988e-06 -4.56566e-07 2.51544e-06 -3.54001
53 1 Cu 10.2029 7.38415 8.32642 1.55129e-06 5.6632e-07 3.1551e-06 -3.54405
54 1 Cu 11.4959 8.13671 10.4367 4.86212e-06 1.42682e-06 -2.43625e-06 -3.54305
55 1 Cu 6.38636 6.64111 0.00903565 4.86854e-07 -7.45674e-07 2.46155e-06 -3.54197
56 1 Cu 7.67685 7.37085 2.08743 -5.62096e-07 1.80141e-06 2.5095e-06 -3.54078
57 1 Cu 8.94305 8.10365 4.16814 -2.2697e-06 1.01048e-06 8.55679e-08 -3.5405
58 1 Cu 10.16 8.8511 6.26096 -2.76301e-07 -5.06525e-07 6.92354e-07 -3.55279
59 1 Cu 11.4268 9.6024 8.3689 3.93243e-06 1.64868e-06 -2.9606e-06 -3.56127
60 1 Cu 12.7301 10.3505 10.4844 4.87697e-06 1.9597e-06 -8.76552e-07 -3.55262
61 1 Cu 7.66081 8.85197 0.00553152 9.74537e-07 6.84565e-07 3.47054e-06 -3.53955
62 1 Cu 8.95041 9.58423 2.09702 1.29576e-06 2.89758e-06 -3.42926e-07 -3.53798
63 1 Cu 10.2222 10.3235 4.1893 -9.03499e-07 1.36197e-07 -1.74665e-07 -3.54256
64 1 Cu 11.4832 11.0787 6.27658 2.51599e-06 3.39819e-07 -3.25314e-06 -3.55945
65 1 Cu 12.7453 11.8245 8.36761 5.92995e-06 4.54235e-07 -1.21294e-06 -3.56078
66 1 Cu 14.0421 12.5421 10.4393 4.97385e-06 1.33448e-06 2.48273e-06 -3.54331
67 1 Cu 8.94797 11.0654 -0.00070044 8.76682e-07 4.26419e-07 1.37524e-06 -3.53716
68 1 Cu 10.2355 11.8003 2.09587 9.06266e-09 1.12065e-06 8.03515e-07 -3.53696
69 1 Cu 11.507 12.5495 4.18283 -2.08983e-06 -5.66283e-07 -2.95993e-06 -3.54117
70 1 Cu 12.77 13.3096 6.26718 1.2275e-06 -2.89196e-06 -5.41554e-07 -3.55169
71 1 Cu 14.0516 14.0211 8.33996 3.32116e-06 -1.39105e-07 3.96922e-06 -3.54359
72 1 Cu 15.3326 14.7586 10.4303 2.94924e-06 1.73974e-06 4.84225e-06 -3.53935
73 1 Cu 5.13691 -0.00310411 -0.00131962 -2.56069e-06 9.61874e-07 -8.36266e-07 -3.53964
74 1 Cu 6.40147 0.749542 2.09121 -1.46105e-06 -1.23256e-06 3.54134e-07 -3.53926
75 1 Cu 15.336 14.7841 4.1691 -4.12771e-06 -3.56406e-06 4.19277e-06 -3.53782
76 1 Cu 8.94184 2.23289 6.25095 -2.46196e-06 -3.21183e-06 5.24001e-06 -3.53997
77 1 Cu 10.227 2.94929 8.33094 1.68289e-06 -8.18328e-08 3.41598e-06 -3.54053
78 1 Cu 11.5216 3.68674 10.4214 4.71561e-07 2.49267e-06 4.16078e-06 -3.53858
79 1 Cu 6.40257 2.21063 0.0199608 -1.92353e-06 -5.21234e-07 -6.19227e-07 -3.54016
80 1 Cu 7.67407 2.96156 2.09544 -2.36099e-06 -1.85286e-06 2.96429e-06 -3.54003
81 1 Cu 8.94247 3.6996 4.16833 -3.43573e-06 -3.22083e-06 3.7133e-06 -3.54073
82 1 Cu 10.2077 4.42047 6.2431 -1.70034e-06 -2.03194e-06 2.51544e-06 -3.54001
83 1 Cu 11.4963 5.14387 8.32642 1.26608e-06 1.06031e-06 3.1551e-06 -3.54405
84 1 Cu 12.7946 5.88741 10.4367 3.66673e-06 3.49731e-06 -2.43625e-06 -3.54305
85 1 Cu 7.66683 4.42644 0.0164169 -8.25768e-07 -4.76755e-07 2.53636e-06 -3.54074
86 1 Cu 8.95271 5.16885 2.08629 -1.35761e-06 -7.83817e-07 2.22862e-06 -3.54014
87 1 Cu 10.2125 5.89622 4.15823 -2.53046e-06 -1.46096e-06 5.96871e-07 -3.53795
88 1 Cu 11.4556 6.61389 6.25188 -1.04398e-06 -6.02735e-07 9.53643e-07 -3.56033
89 1 Cu 12.7098 7.33799 8.37679 3.42921e-06 1.97986e-06 -3.72005e-06 -3.55962
90 1 Cu 14.0255 8.09763 10.478 4.61678e-06 2.6655e-06 -6.46923e-07 -3.55813
91 1 Cu 8.94343 6.64234 0.000483627 -2.08447e-07 8.60871e-08 2.15583e-06 -3.54324
92 1 Cu 10.2198 7.37362 2.08018 -6.09278e-07 6.5342e-07 -3.04396e-07 -3.54003
93 1 Cu 11.4698 8.10604 4.15985 -2.2093e-06 -4.56219e-07 -8.20668e-07 -3.56029
94 1 Cu 12.5465 8.84086 6.28462 1.04623e-07 1.68027e-07 -4.07348e-06 -3.493
95 1 Cu 13.888 9.62666 8.48728 3.42074e-06 -2.37079e-08 -3.60297e-07 -3.51132
96 1 Cu 15.2912 10.3255 10.4501 3.46989e-06 1.59084e-06 2.08114e-06 -3.53858
97 1 Cu 10.2302 8.85238 0.00491517 2.82671e-07 6.12352e-07 7.792e-07 -3.54162
98 1 Cu 11.51 9.58292 2.08892 -2.69323e-07 9.63635e-07 3.51539e-07 -3.54417
99 1 Cu 12.7564 10.3471 4.15569 -9.64696e-07 -5.19646e-07 -1.54896e-06 -3.55422
100 1 Cu 13.9891 11.2198 6.28263 3.0586e-06 -4.70256e-06 4.208e-07 -3.49939
101 1 Cu 15.3122 11.8354 8.33835 3.28511e-06 -1.98745e-06 2.61808e-06 -3.55559
102 1 Cu 16.6128 12.5652 10.4473 2.27447e-06 1.17936e-06 3.61959e-06 -3.53655
103 1 Cu 11.5159 11.0654 0.00230837 -1.95292e-06 1.02196e-06 2.30961e-06 -3.53798
104 1 Cu 12.7974 11.8103 2.08662 -2.21244e-07 5.30095e-07 -7.31724e-07 -3.54256
105 1 Cu 14.0656 12.5697 4.16802 -2.85237e-06 -2.75961e-06 1.13011e-06 -3.55945
106 1 Cu 15.3424 13.3239 6.24712 -1.25261e-06 -3.69262e-06 4.6516e-06 -3.56078
107 1 Cu 16.6197 14.0302 8.33481 1.25667e-06 -8.11628e-07 5.51779e-06 -3.54331
108 1 Cu 17.8995 14.7633 10.4297 2.43845e-06 1.52976e-06 2.27526e-06 -3.53955
109 1 Cu 7.67213 -0.00948793 0.000132105 -4.02072e-07 1.61151e-06 -2.93055e-07 -3.54279
110 1 Cu 8.94247 0.762259 2.07364 9.93654e-07 -2.69281e-07 2.76893e-06 -3.54091
111 1 Cu 17.8863 14.791 4.16678 -1.43944e-06 -3.0425e-06 3.5194e-06 -3.54065
112 1 Cu 11.4985 2.22272 6.25984 4.26954e-07 -1.59714e-06 3.33695e-07 -3.54279
113 1 Cu 12.7791 2.92378 8.35205 1.68625e-06 1.81653e-06 1.60735e-06 -3.54091
114 1 Cu 14.0659 3.65664 10.4429 2.715e-06 3.77893e-06 -1.43641e-06 -3.54065
115 1 Cu 8.94455 2.2102 0.00903565 -4.0235e-07 7.9447e-07 2.46154e-06 -3.54197
116 1 Cu 10.2218 2.96292 2.08743 1.27902e-06 -1.3875e-06 2.5095e-06 -3.54078
117 1 Cu 11.4895 3.69308 4.16814 -2.59742e-07 -2.47086e-06 8.55645e-08 -3.5405
118 1 Cu 12.7453 4.37323 6.26096 -5.76819e-07 1.39914e-08 6.92351e-07 -3.55279
119 1 Cu 14.0293 5.09467 8.3689 3.394e-06 2.58122e-06 -2.9606e-06 -3.56127
120 1 Cu 15.3288 5.84935 10.4844 4.13564e-06 3.24372e-06 -8.76541e-07 -3.55262
121 1 Cu 10.2242 4.42407 0.000483627 -2.96754e-08 -2.23563e-07 2.15582e-06 -3.54324
122 1 Cu 11.4956 5.16379 2.08018 2.61241e-07 -8.54365e-07 -3.04399e-07 -3.54003
123 1 Cu 12.7549 5.88014 4.15985 -1.49975e-06 -1.6852e-06 -8.20665e-07 -3.56029
124 1 Cu 13.9297 6.44515 6.28462 1.97825e-07 6.61805e-09 -4.07347e-06 -3.493
125 1 Cu 15.2809 7.214 8.48728 1.68984e-06 2.97424e-06 -3.603e-07 -3.51132
126 1 Cu 16.5878 8.07983 10.4501 3.11265e-06 2.20959e-06 2.0811e-06 -3.53858
127 1 Cu 11.4967 6.63762 -0.0100675 -1.39296e-07 -8.04239e-08 -2.27468e-07 -3.54616
128 1 Cu 12.749 7.36066 2.03501 -1.18436e-06 -6.83792e-07 -1.93405e-06 -3.55432
129 1 Cu 13.9377 8.04693 3.97606 -1.74815e-06 -1.00929e-06 -2.85473e-06 -3.48694
130 1 Cu 16.4935 9.52253 8.14968 -1.46272e-06 -8.44747e-07 -2.38879e-06 -3.45713
131 1 Cu 17.9057 10.3379 10.4558 1.70163e-06 9.82429e-07 2.77875e-06 -3.51566
132 1 Cu 12.7784 8.85085 -0.00894987 -6.25796e-07 6.43883e-07 -2.90922e-07 -3.54003
133 1 Cu 14.0536 9.5978 2.05018 -4.06676e-07 5.84527e-07 -2.29252e-06 -3.56029
134 1 Cu 15.3642 10.4677 3.98393 -3.42299e-06 -1.86865e-06 -1.1932e-06 -3.493
135 1 Cu 16.709 11.2554 6.18389 -2.80501e-07 -2.16062e-06 2.66174e-06 -3.51132
136 1 Cu 17.9081 11.8364 8.31334 7.80763e-07 3.82758e-08 4.27679e-06 -3.53858
137 1 Cu 19.1712 12.5473 10.4337 1.71052e-06 1.194e-06 5.88991e-07 -3.54324
138 1 Cu 14.0618 11.0589 -0.0112818 -5.1354e-07 2.0244e-06 -1.34834e-06 -3.5405
139 1 Cu 15.339 11.8412 2.03228 8.57745e-07 1.48214e-07 -2.336e-07 -3.55279
140 1 Cu 16.6264 12.6044 4.12344 -3.36919e-06 -2.56691e-06 3.00114e-06 -3.56127
141 1 Cu 17.9217 13.3479 6.24542 -1.84714e-06 -1.92247e-06 4.61366e-06 -3.55262
142 1 Cu 19.1789 14.0269 8.3481 2.44035e-06 3.82181e-07 8.66511e-07 -3.54197
143 1 Cu 20.4545 14.7481 10.4386 1.00895e-06 2.70845e-06 1.22673e-06 -3.54078
144 1 Cu 10.2086 -0.00566156 -0.00509163 1.92406e-06 2.16432e-06 2.47416e-06 -3.54053
145 1 Cu 11.4811 0.738937 2.09634 3.88106e-06 2.03168e-08 2.94701e-06 -3.53858
146 1 Cu 20.4353 14.7672 4.19236 8.75209e-07 -1.93499e-06 -1.91612e-06 -3.53964
147 1 Cu 14.0603 2.20913 6.27718 6.63858e-07 7.72316e-07 -1.65594e-06 -3.53926
148 1 Cu 15.341 2.92729 8.35801 4.45837e-06 3.75497e-06 -3.65279e-06 -3.53782
149 1 Cu 16.6147 3.66727 10.4372 4.58225e-06 4.43598e-06 -1.77759e-06 -3.53997
150 1 Cu 11.4964 2.20847 0.00553152 1.08012e-06 5.01695e-07 3.47053e-06 -3.53955
151 1 Cu 12.7754 2.95917 2.09702 3.15727e-06 -3.26632e-07 -3.42929e-07 -3.53798
152 1 Cu 14.0515 3.69094 4.1893 -3.33795e-07 -8.50548e-07 -1.74667e-07 -3.54256
153 1 Cu 15.3361 4.40536 6.27658 1.55228e-06 2.00903e-06 -3.25313e-06 -3.55945
154 1 Cu 16.613 5.12552 8.36761 3.35835e-06 4.90836e-06 -1.21293e-06 -3.56078
155 1 Cu 17.8828 5.88982 10.4393 3.64262e-06 3.64024e-06 2.48273e-06 -3.54331
156 1 Cu 12.7815 4.43346 0.00491517 6.71645e-07 -6.13767e-08 7.79195e-07 -3.54162
157 1 Cu 14.0541 5.17653 2.08892 6.99874e-07 -7.1506e-07 3.51542e-07 -3.54417
158 1 Cu 15.339 5.8738 4.15569 -9.32375e-07 -5.75612e-07 -1.54894e-06 -3.55422
159 1 Cu 16.7112 6.50506 6.28263 -2.54325e-06 5.0002e-06 4.20841e-07 -3.49939
160 1 Cu 17.9058 7.3431 8.33835 -7.86185e-08 3.83869e-06 2.61808e-06 -3.55559
161 1 Cu 19.1881 8.10453 10.4473 2.15857e-06 1.38008e-06 3.61957e-06 -3.53655
162 1 Cu 14.0543 6.64103 -0.00894987 2.44722e-07 -8.63901e-07 -2.90922e-07 -3.54003
163 1 Cu 15.3388 7.3719 2.05018 3.02879e-07 -6.44453e-07 -2.29251e-06 -3.56029
164 1 Cu 16.7474 8.07197 3.98393 -3.3298e-06 -2.03005e-06 -1.19319e-06 -3.493
165 1 Cu 18.102 8.84274 6.18389 -2.01137e-06 8.37348e-07 2.66171e-06 -3.51132
166 1 Cu 19.2047 9.59071 8.31334 4.23497e-07 6.57008e-07 4.27678e-06 -3.53858
167 1 Cu 20.4519 10.329 10.4337 1.88929e-06 8.84353e-07 5.88985e-07 -3.54324