LAMMPS (22 Dec 2022)
Running on 7 partitions of processors
    Step     MaxReplicaForce  MaxAtomForce      GradV0         GradV1         GradVc          EBF            EBR            RDT            RD1            PE1            RD2            PE2            RD3            PE3            RD4            PE4            RD5            PE5            RD6            PE6            RD7            PE7       
         0   0.60887025       0.044243756    0.48936734     0.48936733     0.60887025     0.3144398      0.31443981     2.556191       0              -761.10457     0.16666667     -760.99076     0.33333333     -760.85022     0.5            -760.79013     0.66666667     -760.85022     0.83333333     -760.99076     1              -761.10457     
        90   6.2192398e-05    3.7611236e-11  2.1921632e-05  2.1921632e-05  5.5074523e-05  0.26371418     0.26371418     3.4061645      0              -761.26541     0.1666661      -761.19389     0.33333285     -761.05463     0.5            -761.00169     0.66666715     -761.05463     0.8333339      -761.19389     1              -761.26541     
Climbing replica = 4
    Step     MaxReplicaForce  MaxAtomForce      GradV0         GradV1         GradVc          EBF            EBR            RDT            RD1            PE1            RD2            PE2            RD3            PE3            RD4            PE4            RD5            PE5            RD6            PE6            RD7            PE7       
        90   6.2192398e-05    3.7611236e-11  2.1921632e-05  2.1921632e-05  5.5074523e-05  0.26371418     0.26371418     3.4061645      0              -761.26541     0.1666661      -761.19389     0.33333285     -761.05463     0.5            -761.00169     0.66666715     -761.05463     0.8333339      -761.19389     1              -761.26541     
        91   6.2136341e-05    3.7553412e-11  2.188837e-05   2.188837e-05   5.5033289e-05  0.26371418     0.26371418     3.4061645      0              -761.26541     0.16666611     -761.19389     0.33333285     -761.05463     0.5            -761.00169     0.66666715     -761.05463     0.83333389     -761.19389     1              -761.26541     
