LAMMPS (22 Dec 2022)
Running on 9 partitions of processors
    Step     MaxReplicaForce  MaxAtomForce      GradV0         GradV1         GradVc          EBF            EBR            RDT            RD1            PE1            RD2            PE2            RD3            PE3            RD4            PE4            RD5            PE5            RD6            PE6            RD7            PE7            RD8            PE8            RD9            PE9       
         0   0.58827833       0.013245098    0.29153193     0.29153193     0.29153193     0              5.6843419e-14  2.556191       0              -377.81863     0.125          -377.8379      0.25           -377.8506      0.375          -377.86168     0.5            -377.86671     0.625          -377.86168     0.75           -377.8506      0.875          -377.8379      1              -377.81863     
