LAMMPS (22 Dec 2022)
Processor partition = 4
units 	metal
dimension 	3
boundary 	p p p
atom_style 	atomic
atom_modify map yes
read_data 	bulkCu_small.lmp
Reading data file ...
  orthogonal box = (0 0 0) to (10.845 10.845 10.845)
  1 by 1 by 1 MPI processor grid
  reading atoms ...
  107 atoms
  read_data CPU = 0.001 seconds
include 	potential.inp
#pair_style 	pace
#pair_coeff 	* * copper.yace Cu
pair_style hybrid/overlay pace table linear 6901
ACE version: 2022.6.27
Recursive evaluator is used
pair_coeff * * pace ../potential.yace Cu
Loading ../potential.yace
Total number of basis functions
	Cu: 6 (r=1) 23 (r>1)
Mapping LAMMPS atom type #1(Cu) -> ACE species type #0
pair_coeff 1 1 table ../potential_pairpot.table Cu_Cu
Reading pair table potential file ../potential_pairpot.table with DATE: none
WARNING: 3 of 6901 force values in table Cu_Cu are inconsistent with -dE/dr.
WARNING:  Should only be flagged at inflection points (../pair_table.cpp:466)
#pair_style eam/alloy
#pair_coeff * * Cu.eam.alloy Cu
variable dumptime 	equal 100
variable thermotime 	equal 100
#min_style 	cg

compute energy all pe/atom
dump 1 	all custom ${dumptime} dump.out id type element xsu ysu zsu fx fy fz
dump 1 	all custom 100 dump.out id type element xsu ysu zsu fx fy fz
dump 4 	all custom ${dumptime} dump.cfg id type element x y z fx fy fz c_energy
dump 4 	all custom 100 dump.cfg id type element x y z fx fy fz c_energy
dump 5 	all custom ${dumptime} lmp_dump.xyz id type element x y z fx fy fz c_energy
dump 5 	all custom 100 lmp_dump.xyz id type element x y z fx fy fz c_energy
dump_modify 5 sort id element Cu
dump_modify 4 sort id element Cu
dump_modify 1 sort id format line "%d %d %s %20.15g %20.15g %20.15g %20.15g %20.15g %20.15g %20.15g"
dump_modify 1 element Cu


#dump 2 all custom ${dumptime} dump_e_atom.out id type xsu ysu zsu c_peratom
#dump_modify 2 sort id format line "%d %d %20.15g %20.15g %20.15g %20.15g"

dump 3 all custom 100 dump3_*.out id type x y z
dump_modify 3 sort id

thermo_style 	custom step temp pe etotal pxx pxy pxz pyy pyz pzz vol
thermo_modify 	format float %20.15g
thermo 	${thermotime}
thermo 	100
#fix         br all box/relax x 10. y 10. z 10.
#minimize 	0.0 0.0001 100000 10000000
#unfix		br
fix 1 all neb 1.0
min_style fire
timestep 0.005
neb 0.0 0.0001 10000 5000 500 final coords.final
Neighbor list info ...
  update: every = 1 steps, delay = 0 steps, check = yes
  max neighbors/atom: 2000, page size: 100000
  master list distance cutoff = 9
  ghost atom cutoff = 9
  binsize = 4.5, bins = 3 3 3
  2 neighbor lists, perpetual/occasional/extra = 2 0 0
  (1) pair pace, perpetual
      attributes: full, newton on, cut 7.506786
      pair build: full/bin/atomonly
      stencil: full/bin/3d
      bin: standard
  (2) pair table, perpetual
      attributes: half, newton on
      pair build: half/bin/atomonly/newton
      stencil: half/bin/3d
      bin: standard
  Parameters for fire:
    dmax  delaystep dtgrow dtshrink alpha0 alphashrink tmax tmin   integrator   halfstepback   abcfire  
     0.1     20      1.1     0.5     0.25     0.99      10  0.02 eulerimplicit      yes          no     
Per MPI rank memory allocation (min/avg/max) = 9.352 | 9.352 | 9.352 Mbytes
   Step          Temp          PotEng         TotEng          Pxx            Pxy            Pxz            Pyy            Pyz            Pzz           Volume    
         0                     0     -377.86670962115     -377.86670962115     -1931.4169441207 -3.30822648333915e-12 5.18105418788714e-12    -1334.16366489255    -646.537392004138    -1334.16366489255       1275.524101125
ERROR on proc 0: Pair distance < table inner cutoff: ijtype 1 1 dist 0.023121637305465015 (../pair_table.cpp:116)
Last command: neb 0.0 0.0001 10000 5000 500 final coords.final
