LAMMPS (22 Dec 2022)
Processor partition = 2
Reading data file ...
  triclinic box = (0 0 0) to (15.337146 13.282358 12.522727) with tilt (7.668573 7.668573 4.4274527)
WARNING: Triclinic box skew is large. LAMMPS will run inefficiently. (../domain.cpp:220)
  1 by 1 by 1 MPI processor grid
  reading atoms ...
  215 atoms
  read_data CPU = 0.001 seconds
ACE version: 2022.6.27
Recursive evaluator is used
Loading potential.yace
Total number of basis functions
	Cu: 6 (r=1) 23 (r>1)
Mapping LAMMPS atom type #1(Cu) -> ACE species type #0
Reading pair table potential file potential.table with DATE: none
WARNING: 4 of 6901 force values in table Cu_Cu are inconsistent with -dE/dr.
WARNING:  Should only be flagged at inflection points (../pair_table.cpp:466)
Neighbor list info ...
  update: every = 1 steps, delay = 0 steps, check = yes
  max neighbors/atom: 2000, page size: 100000
  master list distance cutoff = 9
  ghost atom cutoff = 9
  binsize = 4.5, bins = 7 4 3
  2 neighbor lists, perpetual/occasional/extra = 2 0 0
  (1) pair pace, perpetual
      attributes: full, newton on, cut 7.506786
      pair build: full/bin/atomonly
      stencil: full/bin/3d
      bin: standard
  (2) pair table, perpetual
      attributes: half, newton on
      pair build: half/bin/newton/tri
      stencil: half/bin/3d/tri
      bin: standard
Setting up fire style minimization ...
  Unit style    : metal
  Current step  : 0
  Parameters for fire:
    dmax  delaystep dtgrow dtshrink alpha0 alphashrink tmax tmin   integrator   halfstepback   abcfire  
     0.1     20      1.1     0.5     0.25     0.99      10  0.02 eulerimplicit      yes          no     
Per MPI rank memory allocation (min/avg/max) = 9.537 | 9.537 | 9.537 Mbytes
   Step          Temp          PotEng         TotEng          Pxx            Pxy            Pxz            Pyy            Pyz            Pzz           Volume    
         0                     0    -760.850219739736    -760.850219739736     444.135535678206     59.2479128820985     -221.84863047152     375.721880337758    -128.084343237149     297.203574148979     2551.04820180899
        90  5.15656702987097e-05    -761.054634062919    -761.054632636526     944.882969333627    -32.9960854034678     7.28344860892299     982.983515070959      4.2051235518255     931.779478510035     2551.04820180899
Loop time of 1.231 on 1 procs for 90 steps with 215 atoms

98.8% CPU use with 1 MPI tasks x no OpenMP threads

Minimization stats:
  Stopping criterion = force tolerance
  Energy initial, next-to-last, final = 
     -760.850219739736  -761.054632894795  -761.054634062919
  Force two-norm initial, final = 0.5733028 5.6280076e-05
  Force max component initial, final = 0.19317282 5.7752922e-06
  Final line search alpha, max atom move = 0 0
  Iterations, force evaluations = 90 93

MPI task timing breakdown:
Section |  min time  |  avg time  |  max time  |%varavg| %total
---------------------------------------------------------------
Pair    | 1.0641     | 1.0641     | 1.0641     |   0.0 | 86.44
Neigh   | 0          | 0          | 0          |   0.0 |  0.00
Comm    | 0.0023447  | 0.0023447  | 0.0023447  |   0.0 |  0.19
Output  | 0          | 0          | 0          |   0.0 |  0.00
Modify  | 0.09046    | 0.09046    | 0.09046    |   0.0 |  7.35
Other   |            | 0.07408    |            |       |  6.02

Nlocal:            215 ave         215 max         215 min
Histogram: 1 0 0 0 0 0 0 0 0 0
Nghost:           3133 ave        3133 max        3133 min
Histogram: 1 0 0 0 0 0 0 0 0 0
Neighs:          26544 ave       26544 max       26544 min
Histogram: 1 0 0 0 0 0 0 0 0 0
FullNghs:        29982 ave       29982 max       29982 min
Histogram: 1 0 0 0 0 0 0 0 0 0

Total # of neighbors = 29982
Ave neighs/atom = 139.45116
Neighbor list builds = 0
Dangerous builds = 0
Setting up fire style minimization ...
  Unit style    : metal
  Current step  : 90
  Parameters for fire:
    dmax  delaystep dtgrow dtshrink alpha0 alphashrink tmax tmin   integrator   halfstepback   abcfire  
     0.1     20      1.1     0.5     0.25     0.99      10  0.02 eulerimplicit      yes          no     
Per MPI rank memory allocation (min/avg/max) = 9.537 | 9.537 | 9.537 Mbytes
   Step          Temp          PotEng         TotEng          Pxx            Pxy            Pxz            Pyy            Pyz            Pzz           Volume    
        90                     0    -761.054634062919    -761.054634062919     944.882969333649    -32.9960854034889     7.28344860891678     982.983515070948     4.20512355182492     931.779478510047     2551.04820180899
        91  2.17327183114166e-10    -761.054634061966     -761.05463406196     944.882246267565    -32.9962365451038     7.28370212967038     982.982966527826      4.2052699218662     931.778875181452     2551.04820180899
Loop time of 0.106879 on 1 procs for 1 steps with 215 atoms

91.7% CPU use with 1 MPI tasks x no OpenMP threads

Minimization stats:
  Stopping criterion = force tolerance
  Energy initial, next-to-last, final = 
     -761.054634062919  -761.054634062919  -761.054634061966
  Force two-norm initial, final = 5.6280076e-05 5.6236149e-05
  Force max component initial, final = 5.7752922e-06 5.770908e-06
  Final line search alpha, max atom move = 0 0
  Iterations, force evaluations = 1 2

MPI task timing breakdown:
Section |  min time  |  avg time  |  max time  |%varavg| %total
---------------------------------------------------------------
Pair    | 0.033876   | 0.033876   | 0.033876   |   0.0 | 31.70
Neigh   | 0          | 0          | 0          |   0.0 |  0.00
Comm    | 9.2855e-05 | 9.2855e-05 | 9.2855e-05 |   0.0 |  0.09
Output  | 0          | 0          | 0          |   0.0 |  0.00
Modify  | 0.028486   | 0.028486   | 0.028486   |   0.0 | 26.65
Other   |            | 0.04442    |            |       | 41.57

Nlocal:            215 ave         215 max         215 min
Histogram: 1 0 0 0 0 0 0 0 0 0
Nghost:           3133 ave        3133 max        3133 min
Histogram: 1 0 0 0 0 0 0 0 0 0
Neighs:          26540 ave       26540 max       26540 min
Histogram: 1 0 0 0 0 0 0 0 0 0
FullNghs:        30104 ave       30104 max       30104 min
Histogram: 1 0 0 0 0 0 0 0 0 0

Total # of neighbors = 30104
Ave neighs/atom = 140.0186
Neighbor list builds = 0
Dangerous builds = 0
Total wall time: 0:00:01
