LAMMPS (22 Dec 2022)
Processor partition = 3
Reading data file ...
  triclinic box = (0 0 0) to (15.337146 13.282358 12.522727) with tilt (7.668573 7.668573 4.4274527)
WARNING: Triclinic box skew is large. LAMMPS will run inefficiently. (../domain.cpp:220)
  1 by 1 by 1 MPI processor grid
  reading atoms ...
  215 atoms
  read_data CPU = 0.001 seconds
ACE version: 2022.6.27
Recursive evaluator is used
Loading potential.yace
Total number of basis functions
	Cu: 6 (r=1) 23 (r>1)
Mapping LAMMPS atom type #1(Cu) -> ACE species type #0
Reading pair table potential file potential.table with DATE: none
WARNING: 4 of 6901 force values in table Cu_Cu are inconsistent with -dE/dr.
WARNING:  Should only be flagged at inflection points (../pair_table.cpp:466)
Neighbor list info ...
  update: every = 1 steps, delay = 0 steps, check = yes
  max neighbors/atom: 2000, page size: 100000
  master list distance cutoff = 9
  ghost atom cutoff = 9
  binsize = 4.5, bins = 7 4 3
  2 neighbor lists, perpetual/occasional/extra = 2 0 0
  (1) pair pace, perpetual
      attributes: full, newton on, cut 7.506786
      pair build: full/bin/atomonly
      stencil: full/bin/3d
      bin: standard
  (2) pair table, perpetual
      attributes: half, newton on
      pair build: half/bin/newton/tri
      stencil: half/bin/3d/tri
      bin: standard
Setting up fire style minimization ...
  Unit style    : metal
  Current step  : 0
  Parameters for fire:
    dmax  delaystep dtgrow dtshrink alpha0 alphashrink tmax tmin   integrator   halfstepback   abcfire  
     0.1     20      1.1     0.5     0.25     0.99      10  0.02 eulerimplicit      yes          no     
Per MPI rank memory allocation (min/avg/max) = 9.537 | 9.537 | 9.537 Mbytes
   Step          Temp          PotEng         TotEng          Pxx            Pxy            Pxz            Pyy            Pyz            Pzz           Volume    
         0                     0    -760.790126606029    -760.790126606029     568.345534304107     73.7749864748887    -304.327713011291     483.157458302155    -175.703664144003     362.456892777853     2551.04820180899
        90  6.17167341737029e-05    -761.001691849678     -761.00169014249     1192.18194994369     -8.0931748083465    -20.6818327062961     1201.52709158765     -11.940639172236     1170.62260612644     2551.04820180899
Loop time of 1.231 on 1 procs for 90 steps with 215 atoms

97.9% CPU use with 1 MPI tasks x no OpenMP threads

Minimization stats:
  Stopping criterion = force tolerance
  Energy initial, next-to-last, final = 
     -760.790126606029  -761.001691827177  -761.001691849678
  Force two-norm initial, final = 0.60887025 5.5074523e-05
  Force max component initial, final = 0.210342 5.6932484e-06
  Final line search alpha, max atom move = 0 0
  Iterations, force evaluations = 90 93

MPI task timing breakdown:
Section |  min time  |  avg time  |  max time  |%varavg| %total
---------------------------------------------------------------
Pair    | 1.1058     | 1.1058     | 1.1058     |   0.0 | 89.83
Neigh   | 0          | 0          | 0          |   0.0 |  0.00
Comm    | 0.0024716  | 0.0024716  | 0.0024716  |   0.0 |  0.20
Output  | 0          | 0          | 0          |   0.0 |  0.00
Modify  | 0.052249   | 0.052249   | 0.052249   |   0.0 |  4.24
Other   |            | 0.07046    |            |       |  5.72

Nlocal:            215 ave         215 max         215 min
Histogram: 1 0 0 0 0 0 0 0 0 0
Nghost:           3133 ave        3133 max        3133 min
Histogram: 1 0 0 0 0 0 0 0 0 0
Neighs:          26555 ave       26555 max       26555 min
Histogram: 1 0 0 0 0 0 0 0 0 0
FullNghs:        29978 ave       29978 max       29978 min
Histogram: 1 0 0 0 0 0 0 0 0 0

Total # of neighbors = 29978
Ave neighs/atom = 139.43256
Neighbor list builds = 0
Dangerous builds = 0
Setting up fire style minimization ...
  Unit style    : metal
  Current step  : 90
  Parameters for fire:
    dmax  delaystep dtgrow dtshrink alpha0 alphashrink tmax tmin   integrator   halfstepback   abcfire  
     0.1     20      1.1     0.5     0.25     0.99      10  0.02 eulerimplicit      yes          no     
Per MPI rank memory allocation (min/avg/max) = 9.537 | 9.537 | 9.537 Mbytes
   Step          Temp          PotEng         TotEng          Pxx            Pxy            Pxz            Pyy            Pyz            Pzz           Volume    
        90                     0    -761.001691849678    -761.001691849678     1192.18194994366    -8.09317480833759    -20.6818327062786     1201.52709158765    -11.9406391722335     1170.62260612645     2551.04820180899
        91  2.08116343604937e-10    -761.001691849689    -761.001691849683     1192.18107532391    -8.09335333762189    -20.6814987749024     1201.52642311567    -11.9404463768356     1170.62190108712     2551.04820180899
Loop time of 0.106876 on 1 procs for 1 steps with 215 atoms

91.8% CPU use with 1 MPI tasks x no OpenMP threads

Minimization stats:
  Stopping criterion = force tolerance
  Energy initial, next-to-last, final = 
     -761.001691849678  -761.001691849678  -761.001691849689
  Force two-norm initial, final = 5.5074523e-05 5.5033289e-05
  Force max component initial, final = 5.6932484e-06 5.6889876e-06
  Final line search alpha, max atom move = 0 0
  Iterations, force evaluations = 1 2

MPI task timing breakdown:
Section |  min time  |  avg time  |  max time  |%varavg| %total
---------------------------------------------------------------
Pair    | 0.033656   | 0.033656   | 0.033656   |   0.0 | 31.49
Neigh   | 0          | 0          | 0          |   0.0 |  0.00
Comm    | 9.3775e-05 | 9.3775e-05 | 9.3775e-05 |   0.0 |  0.09
Output  | 0          | 0          | 0          |   0.0 |  0.00
Modify  | 0.028694   | 0.028694   | 0.028694   |   0.0 | 26.85
Other   |            | 0.04443    |            |       | 41.57

Nlocal:            215 ave         215 max         215 min
Histogram: 1 0 0 0 0 0 0 0 0 0
Nghost:           3133 ave        3133 max        3133 min
Histogram: 1 0 0 0 0 0 0 0 0 0
Neighs:          26559 ave       26559 max       26559 min
Histogram: 1 0 0 0 0 0 0 0 0 0
FullNghs:        30108 ave       30108 max       30108 min
Histogram: 1 0 0 0 0 0 0 0 0 0

Total # of neighbors = 30108
Ave neighs/atom = 140.03721
Neighbor list builds = 0
Dangerous builds = 0
Total wall time: 0:00:01
