LAMMPS (22 Dec 2022)
Processor partition = 4
Reading data file ...
  orthogonal box = (0 0 0) to (10.845 10.845 10.845)
  1 by 1 by 1 MPI processor grid
  reading atoms ...
  107 atoms
  read_data CPU = 0.001 seconds
ACE version: 2022.6.27
Recursive evaluator is used
Loading ../potential.yace
Total number of basis functions
	Cu: 6 (r=1) 23 (r>1)
Mapping LAMMPS atom type #1(Cu) -> ACE species type #0
Reading pair table potential file ../potential_pairpot.table with DATE: none
WARNING: 3 of 6901 force values in table Cu_Cu are inconsistent with -dE/dr.
WARNING:  Should only be flagged at inflection points (../pair_table.cpp:466)
Neighbor list info ...
  update: every = 1 steps, delay = 0 steps, check = yes
  max neighbors/atom: 2000, page size: 100000
  master list distance cutoff = 9
  ghost atom cutoff = 9
  binsize = 4.5, bins = 3 3 3
  2 neighbor lists, perpetual/occasional/extra = 2 0 0
  (1) pair pace, perpetual
      attributes: full, newton on, cut 7.506786
      pair build: full/bin/atomonly
      stencil: full/bin/3d
      bin: standard
  (2) pair table, perpetual
      attributes: half, newton on
      pair build: half/bin/atomonly/newton
      stencil: half/bin/3d
      bin: standard
Setting up fire style minimization ...
  Unit style    : metal
  Current step  : 0
  Parameters for fire:
    dmax  delaystep dtgrow dtshrink alpha0 alphashrink tmax tmin   integrator   halfstepback   abcfire  
     0.1     20      1.1     0.5     0.25     0.99      10  0.02 eulerimplicit      yes          no     
Per MPI rank memory allocation (min/avg/max) = 9.352 | 9.352 | 9.352 Mbytes
   Step          Temp          PotEng         TotEng          Pxx            Pxy            Pxz            Pyy            Pyz            Pzz           Volume    
         0                     0     -377.86670962115     -377.86670962115     -1931.4169441207 -3.30822648333915e-12 5.18105418788714e-12    -1334.16366489255    -646.537392004138    -1334.16366489255       1275.524101125
ERROR on proc 0: Pair distance < table inner cutoff: ijtype 1 1 dist 0.023121637305465015 (../pair_table.cpp:116)
Last command: neb 0.0 0.0001 10000 5000 500 final coords.final
